/*--------------------------------*- C++ -*----------------------------------*\
| =========                 |                                                 |
| \\      /  F ield         | OpenFOAM: The Open Source CFD Toolbox           |
|  \\    /   O peration     | Version:  v1706                                 |
|   \\  /    A nd           | Web:      www.OpenFOAM.com                      |
|    \\/     M anipulation  |                                                 |
\*---------------------------------------------------------------------------*/
FoamFile
{
    version     2.0;
    format      ascii;
    class       surfaceScalarField;
    location    "1.2";
    object      phi;
}
// * * * * * * * * * * * * * * * * * * * * * * * * * * * * * * * * * * * * * //

dimensions      [0 3 -1 0 0 0 0];
oriented        oriented;


internalField   nonuniform List<scalar> 
760
(
4.41596e-05
-5.28205e-11
4.41597e-05
-4.49987e-11
4.41597e-05
-1.62886e-11
4.41597e-05
-8.08577e-12
4.41597e-05
-5.80043e-12
4.41597e-05
-1.1441e-12
4.41597e-05
-3.2742e-12
4.41597e-05
-1.84437e-13
4.41597e-05
-2.0365e-12
4.41597e-05
-5.59405e-13
4.41597e-05
-1.03233e-12
4.41597e-05
-1.23845e-12
4.41597e-05
-5.32814e-13
4.41597e-05
-1.55953e-12
4.41597e-05
-6.77316e-13
4.41597e-05
-1.27613e-12
4.41597e-05
-1.23927e-12
4.41597e-05
9.34516e-14
4.41597e-05
-1.16908e-11
-3.85902e-11
0.000126146
-1.54212e-10
0.000126146
-1.56345e-10
0.000126146
-6.04691e-11
0.000126146
-3.07622e-11
0.000126146
-1.97807e-11
0.000126146
-8.05864e-12
0.000126146
-1.04431e-11
0.000126146
-4.08359e-12
0.000126146
-7.04226e-12
0.000126146
-3.95199e-12
0.000126146
-4.91507e-12
0.000126146
-4.75527e-12
0.000126146
-3.85686e-12
0.000126146
-4.87017e-12
0.000126146
-3.86039e-12
0.000126146
-2.47748e-12
0.000126146
-6.09991e-12
0.000126146
5.33677e-12
0.000126146
-4.30048e-11
-1.10338e-10
0.0002018
-2.68418e-10
0.000201801
-3.01612e-10
0.000201801
-1.23678e-10
0.000201801
-6.28184e-11
0.000201801
-3.86714e-11
0.000201801
-1.85497e-11
0.000201801
-1.89837e-11
0.000201801
-9.80355e-12
0.000201801
-1.24194e-11
0.000201801
-8.0916e-12
0.000201801
-8.95353e-12
0.000201801
-8.35882e-12
0.000201801
-7.41661e-12
0.000201801
-7.98911e-12
0.000201801
-7.595e-12
0.000201801
-2.55049e-12
0.000201801
-1.31087e-11
0.000201801
1.51359e-11
0.000201801
-8.3954e-11
-1.89927e-10
0.000271122
-3.74595e-10
0.000271122
-4.50304e-10
0.000271123
-1.94693e-10
0.000271123
-9.89005e-11
0.000271123
-5.97689e-11
0.000271123
-3.05078e-11
0.000271123
-2.78143e-11
0.000271123
-1.59956e-11
0.000271123
-1.73293e-11
0.000271123
-1.20108e-11
0.000271123
-1.22189e-11
0.000271123
-1.13733e-11
0.000271123
-1.02396e-11
0.000271123
-1.04819e-11
0.000271123
-1.10519e-11
0.000271123
-1.72995e-12
0.000271123
-2.09193e-11
0.000271123
2.70396e-11
0.000271123
-1.23958e-10
-2.63773e-10
0.000334112
-4.56912e-10
0.000334112
-5.77516e-10
0.000334112
-2.61746e-10
0.000334112
-1.33732e-10
0.000334112
-8.02441e-11
0.000334112
-4.25038e-11
0.000334112
-3.6124e-11
0.000334112
-2.21977e-11
0.000334112
-2.15871e-11
0.000334112
-1.56238e-11
0.000334112
-1.47269e-11
0.000334112
-1.38346e-11
0.000334112
-1.23357e-11
0.000334112
-1.23851e-11
0.000334112
-1.40255e-11
0.000334112
-3.81486e-13
0.000334112
-2.83847e-11
0.000334112
3.86943e-11
0.000334112
-1.5574e-10
-3.21201e-10
0.00039077
-5.05739e-10
0.00039077
-6.65626e-10
0.00039077
-3.14174e-10
0.00039077
-1.62076e-10
0.00039077
-9.72531e-11
0.00039077
-5.30467e-11
0.00039077
-4.31091e-11
0.00039077
-2.79301e-11
0.00039077
-2.50438e-11
0.00039077
-1.88665e-11
0.00039077
-1.65709e-11
0.00039077
-1.5844e-11
0.00039077
-1.3819e-11
0.00039077
-1.38429e-11
0.00039077
-1.63987e-11
0.00039077
9.99968e-13
0.00039077
-3.44629e-11
0.00039077
4.7925e-11
0.00039077
-1.75557e-10
-3.55391e-10
0.000441096
-5.16905e-10
0.000441096
-7.04489e-10
0.000441097
-3.43958e-10
0.000441097
-1.79499e-10
0.000441097
-1.08307e-10
0.000441097
-6.07238e-11
0.000441097
-4.80109e-11
0.000441097
-3.26749e-11
0.000441097
-2.75131e-11
0.000441097
-2.16169e-11
0.000441097
-1.77941e-11
0.000441097
-1.74611e-11
0.000441097
-1.47691e-11
0.000441097
-1.4991e-11
0.000441097
-1.80532e-11
0.000441097
1.9291e-12
0.000441097
-3.83131e-11
0.000441097
5.31668e-11
0.000441097
-1.82331e-10
-3.63186e-10
0.000485091
-4.9135e-10
0.000485091
-6.9166e-10
0.000485091
-3.46823e-10
0.000485091
-1.83173e-10
0.000485091
-1.11702e-10
0.000485091
-6.44649e-11
0.000485091
-5.0246e-11
0.000485091
-3.5974e-11
0.000485091
-2.88159e-11
0.000485091
-2.3727e-11
0.000485091
-1.84038e-11
0.000485091
-1.87014e-11
0.000485091
-1.52375e-11
0.000485091
-1.59262e-11
0.000485091
-1.88994e-11
0.000485091
2.0409e-12
0.000485091
-3.9447e-11
0.000485091
5.36674e-11
0.000485091
-1.77045e-10
-3.44971e-10
0.000522754
-4.33879e-10
0.000522754
-6.31335e-10
0.000522754
-3.22743e-10
0.000522754
-1.72418e-10
0.000522754
-1.06868e-10
0.000522754
-6.37653e-11
0.000522754
-4.95377e-11
0.000522754
-3.75219e-11
0.000522754
-2.88405e-11
0.000522754
-2.5069e-11
0.000522754
-1.84005e-11
0.000522754
-1.95548e-11
0.000522754
-1.52643e-11
0.000522754
-1.66964e-11
0.000522754
-1.8909e-11
0.000522754
1.16692e-12
0.000522754
-3.78002e-11
0.000522754
4.95259e-11
0.000522754
-1.61855e-10
-3.03993e-10
0.000554086
-3.5222e-10
0.000554086
-5.33116e-10
0.000554085
-2.75712e-10
0.000554085
-1.48855e-10
0.000554085
-9.45234e-11
0.000554085
-5.88053e-11
0.000554085
-4.59935e-11
0.000554085
-3.72227e-11
0.000554085
-2.75831e-11
0.000554085
-2.5564e-11
0.000554085
-1.77969e-11
0.000554085
-1.99937e-11
0.000554085
-1.4884e-11
0.000554085
-1.72892e-11
0.000554085
-1.81289e-11
0.000554085
-6.22181e-13
0.000554085
-3.37273e-11
0.000554085
4.15502e-11
0.000554085
-1.39516e-10
-2.45705e-10
0.000579086
-2.5589e-10
0.000579086
-4.10297e-10
0.000579086
-2.12942e-10
0.000579085
-1.1613e-10
0.000579085
-7.65725e-11
0.000579085
-5.04312e-11
0.000579085
-4.01058e-11
0.000579085
-3.52125e-11
0.000579085
-2.51673e-11
0.000579085
-2.51943e-11
0.000579085
-1.66326e-11
0.000579085
-1.99842e-11
0.000579085
-1.41342e-11
0.000579085
-1.76368e-11
0.000579085
-1.6685e-11
0.000579085
-3.03295e-12
0.000579085
-2.79223e-11
0.000579085
3.10524e-11
0.000579085
-1.12911e-10
-1.76963e-10
0.000597754
-1.55207e-10
0.000597754
-2.78098e-10
0.000597754
-1.4362e-10
0.000597754
-7.92319e-11
0.000597754
-5.57623e-11
0.000597754
-3.99918e-11
0.000597754
-3.26746e-11
0.000597754
-3.18225e-11
0.000597754
-2.18352e-11
0.000597754
-2.40108e-11
0.000597754
-1.49806e-11
0.000597754
-1.94962e-11
0.000597754
-1.30582e-11
0.000597754
-1.76314e-11
0.000597754
-1.47636e-11
0.000597754
-5.61229e-12
0.000597754
-2.12827e-11
0.000597754
1.96132e-11
0.000597754
-8.48034e-11
-1.05279e-10
0.000610091
-6.0517e-11
0.000610091
-1.51959e-10
0.000610091
-7.7375e-11
0.000610091
-4.35851e-11
0.000610091
-3.51486e-11
0.000610091
-2.90632e-11
0.000610091
-2.4661e-11
0.000610091
-2.75102e-11
0.000610091
-1.79151e-11
0.000610091
-2.2121e-11
0.000610091
-1.29455e-11
0.000610091
-1.85098e-11
0.000610091
-1.17051e-11
0.000610091
-1.71512e-11
0.000610091
-1.2579e-11
0.000610091
-7.8468e-12
0.000610091
-1.47503e-11
0.000610091
8.83834e-12
0.000610091
-5.77355e-11
-3.81214e-11
0.000616097
1.88751e-11
0.000616097
-4.56517e-11
0.000616097
-2.27687e-11
0.000616097
-1.40017e-11
0.000616097
-1.74993e-11
0.000616097
-1.91216e-11
0.000616097
-1.70084e-11
0.000616097
-2.27674e-11
0.000616097
-1.37729e-11
0.000616097
-1.9665e-11
0.000616097
-1.06536e-11
0.000616097
-1.70187e-11
0.000616097
-1.01247e-11
0.000616097
-1.60873e-11
0.000616097
-1.03283e-11
0.000616097
-9.26721e-12
0.000616097
-9.13018e-12
0.000616097
1.67605e-13
0.000616097
-3.39199e-11
1.77973e-11
0.000615771
7.5116e-11
0.00061577
3.01461e-11
0.00061577
1.42709e-11
0.00061577
6.20019e-12
0.00061577
-4.73932e-12
0.00061577
-1.12486e-11
0.00061577
-1.04738e-11
0.00061577
-1.80294e-11
0.00061577
-9.75996e-12
0.00061577
-1.67906e-11
0.00061577
-8.24252e-12
0.00061577
-1.50313e-11
0.00061577
-8.36705e-12
0.00061577
-1.43723e-11
0.00061577
-8.1575e-12
0.00061577
-9.55517e-12
0.00061577
-4.96125e-12
0.00061577
-5.39024e-12
0.00061577
-1.52661e-11
5.70953e-11
0.000609113
1.03439e-10
0.000609113
6.99737e-11
0.000609113
3.1449e-11
0.000609113
1.58907e-11
0.000609113
2.41352e-12
0.000609112
-5.91994e-12
0.000609112
-5.49991e-12
0.000609112
-1.35919e-11
0.000609112
-6.16124e-12
0.000609112
-1.3612e-11
0.000609112
-5.83584e-12
0.000609112
-1.25501e-11
0.000609112
-6.46407e-12
0.000609112
-1.19805e-11
0.000609112
-6.1197e-12
0.000609112
-8.58901e-12
0.000609112
-2.37883e-12
0.000609112
-7.38387e-12
0.000609112
-2.99673e-12
7.65012e-11
0.000596123
1.02074e-10
0.000596123
7.43142e-11
0.000596123
3.10039e-11
0.000596123
1.62708e-11
0.000596123
4.57837e-12
0.000596123
-2.9522e-12
0.000596123
-2.14821e-12
0.000596123
-9.56335e-12
0.000596123
-3.14405e-12
0.000596123
-1.01714e-11
0.000596123
-3.51692e-12
0.000596123
-9.54445e-12
0.000596123
-4.42531e-12
0.000596123
-8.91787e-12
0.000596123
-4.18038e-12
0.000596123
-6.47996e-12
0.000596123
-1.13608e-12
0.000596123
-6.22103e-12
0.000596123
2.35003e-12
7.51919e-11
0.000576801
7.51211e-11
0.000576801
5.21e-11
0.000576801
1.92932e-11
0.000576801
1.06318e-11
0.000576801
3.47414e-12
0.000576801
-1.63475e-12
0.000576801
-2.1975e-13
0.000576801
-5.9213e-12
0.000576801
-8.58739e-13
0.000576801
-6.50401e-12
0.000576801
-1.45259e-12
0.000576801
-6.04665e-12
0.000576801
-2.36486e-12
0.000576801
-5.33094e-12
0.000576801
-2.32546e-12
0.000576801
-3.61419e-12
0.000576801
-6.58254e-13
0.000576801
-3.08625e-12
0.000576801
2.26601e-12
5.59384e-11
0.000551146
3.13635e-11
0.000551146
1.95592e-11
0.000551146
6.19658e-12
0.000551146
3.49512e-12
0.000551146
1.55493e-12
0.000551146
-8.51409e-13
0.000551146
7.85932e-13
0.000551146
-2.4171e-12
0.000551146
7.45064e-13
0.000551146
-2.49043e-12
0.000551146
3.53154e-13
0.000551146
-1.97292e-12
0.000551146
-2.5018e-13
0.000551146
-1.27183e-12
0.000551146
-3.92339e-13
0.000551146
-3.97791e-13
0.000551146
-1.34168e-13
0.000551146
-2.57079e-14
0.000551146
-3.53575e-14
2.4643e-11
0.00051916
0.00051916
0.00051916
0.00051916
0.00051916
0.00051916
0.00051916
0.00051916
0.00051916
0.00051916
0.00051916
0.00051916
0.00051916
0.00051916
0.00051916
0.00051916
0.00051916
0.00051916
0.00051916
)
;

boundaryField
{
    top
    {
        type            calculated;
        value           uniform 0;
    }
    bottom
    {
        type            calculated;
        value           uniform 0;
    }
    inlet
    {
        type            calculated;
        value           nonuniform List<scalar> 
20
(
-4.41596e-05
-0.000126146
-0.0002018
-0.000271122
-0.000334112
-0.00039077
-0.000441096
-0.000485091
-0.000522754
-0.000554086
-0.000579086
-0.000597754
-0.000610091
-0.000616097
-0.000615771
-0.000609113
-0.000596123
-0.000576801
-0.000551146
-0.00051916
)
;
    }
    outlet
    {
        type            calculated;
        value           nonuniform List<scalar> 
20
(
4.41598e-05
0.000126147
0.000201801
0.000271123
0.000334113
0.00039077
0.000441097
0.000485091
0.000522754
0.000554085
0.000579085
0.000597754
0.000610091
0.000616096
0.00061577
0.000609112
0.000596123
0.000576801
0.000551146
0.00051916
)
;
    }
    frontAndBack
    {
        type            empty;
        value           nonuniform 0();
    }
}


// ************************************************************************* //
