/*--------------------------------*- C++ -*----------------------------------*\
| =========                 |                                                 |
| \\      /  F ield         | OpenFOAM: The Open Source CFD Toolbox           |
|  \\    /   O peration     | Version:  v1706                                 |
|   \\  /    A nd           | Web:      www.OpenFOAM.com                      |
|    \\/     M anipulation  |                                                 |
\*---------------------------------------------------------------------------*/
FoamFile
{
    version     2.0;
    format      ascii;
    class       volVectorField;
    location    "1.2";
    object      U;
}
// * * * * * * * * * * * * * * * * * * * * * * * * * * * * * * * * * * * * * //

dimensions      [0 1 -1 0 0 0 0];


internalField   nonuniform List<vector> 
400
(
(0.883192 -2.43249e-08 0)
(0.883193 -1.94798e-08 0)
(0.883194 -6.09666e-09 0)
(0.883194 -3.61312e-09 0)
(0.883194 -2.38967e-09 0)
(0.883194 -1.25385e-09 0)
(0.883194 -1.80764e-09 0)
(0.883194 -9.8337e-10 0)
(0.883194 -1.69286e-09 0)
(0.883194 -1.17098e-09 0)
(0.883194 -1.66463e-09 0)
(0.883194 -1.39206e-09 0)
(0.883194 -1.62256e-09 0)
(0.883194 -1.35901e-09 0)
(0.883194 -1.42804e-09 0)
(0.883194 -8.92564e-10 0)
(0.883194 -1.19241e-09 0)
(0.883194 -8.36422e-11 0)
(0.883194 -4.88495e-09 0)
(0.883195 -1.81765e-08 0)
(2.52292 -9.81218e-08 0)
(2.52293 -8.97006e-08 0)
(2.52293 -3.29596e-08 0)
(2.52293 -1.65116e-08 0)
(2.52293 -1.16205e-08 0)
(2.52293 -3.31692e-09 0)
(2.52293 -6.49328e-09 0)
(2.52293 -1.41149e-09 0)
(2.52293 -4.26434e-09 0)
(2.52293 -1.91789e-09 0)
(2.52293 -2.53371e-09 0)
(2.52293 -2.92747e-09 0)
(2.52293 -1.59337e-09 0)
(2.52293 -3.26541e-09 0)
(2.52293 -1.60804e-09 0)
(2.52293 -2.21461e-09 0)
(2.52293 -2.61481e-09 0)
(2.52293 1.23823e-09 0)
(2.52293 -2.50268e-08 0)
(2.52293 -7.07094e-08 0)
(4.03601 -2.09496e-07 0)
(4.03601 -2.23921e-07 0)
(4.03601 -8.82047e-08 0)
(4.03601 -4.52857e-08 0)
(4.03601 -2.83198e-08 0)
(4.03601 -1.34062e-08 0)
(4.03601 -1.48526e-08 0)
(4.03601 -7.54493e-09 0)
(4.03601 -1.04359e-08 0)
(4.03601 -6.86437e-09 0)
(4.03601 -8.05683e-09 0)
(4.03601 -7.47431e-09 0)
(4.03601 -6.91572e-09 0)
(4.03601 -7.25254e-09 0)
(4.03601 -6.72352e-09 0)
(4.03601 -3.15695e-09 0)
(4.03601 -9.85656e-09 0)
(4.03601 9.38548e-09 0)
(4.03601 -6.25391e-08 0)
(4.03602 -1.49024e-07 0)
(5.42245 -3.24901e-07 0)
(5.42245 -3.7699e-07 0)
(5.42245 -1.57925e-07 0)
(5.42245 -8.00398e-08 0)
(5.42245 -4.8751e-08 0)
(5.42245 -2.40139e-08 0)
(5.42245 -2.3173e-08 0)
(5.42245 -1.25159e-08 0)
(5.42245 -1.4698e-08 0)
(5.42245 -9.78066e-09 0)
(5.42245 -1.03856e-08 0)
(5.42245 -9.67263e-09 0)
(5.42245 -8.59297e-09 0)
(5.42245 -9.09302e-09 0)
(5.42245 -9.05871e-09 0)
(5.42245 -2.16193e-09 0)
(5.42245 -1.66766e-08 0)
(5.42245 2.07649e-08 0)
(5.42245 -1.04918e-07 0)
(5.42245 -2.29169e-07 0)
(6.68224 -4.22805e-07 0)
(6.68225 -5.21222e-07 0)
(6.68225 -2.30285e-07 0)
(6.68225 -1.17046e-07 0)
(6.68225 -7.03145e-08 0)
(6.68225 -3.64843e-08 0)
(6.68225 -3.19739e-08 0)
(6.68225 -1.89079e-08 0)
(6.68225 -1.9367e-08 0)
(6.68225 -1.36089e-08 0)
(6.68225 -1.33464e-08 0)
(6.68225 -1.24121e-08 0)
(6.68225 -1.11582e-08 0)
(6.68225 -1.12786e-08 0)
(6.68225 -1.24433e-08 0)
(6.68225 -9.60122e-10 0)
(6.68225 -2.47552e-08 0)
(6.68225 3.32592e-08 0)
(6.68225 -1.42187e-07 0)
(6.68225 -2.97321e-07 0)
(7.8154 -4.89992e-07 0)
(7.8154 -6.32498e-07 0)
(7.81541 -2.92627e-07 0)
(7.81541 -1.4995e-07 0)
(7.81541 -8.97658e-08 0)
(7.81541 -4.81322e-08 0)
(7.81541 -3.98107e-08 0)
(7.81541 -2.4985e-08 0)
(7.81541 -2.32424e-08 0)
(7.81541 -1.70291e-08 0)
(7.81541 -1.547e-08 0)
(7.81541 -1.45852e-08 0)
(7.81541 -1.28794e-08 0)
(7.81541 -1.28761e-08 0)
(7.81541 -1.51033e-08 0)
(7.81541 5.81206e-10 0)
(7.81541 -3.17559e-08 0)
(7.81541 4.42684e-08 0)
(7.81541 -1.68419e-07 0)
(7.81541 -3.44284e-07 0)
(8.82193 -5.20254e-07 0)
(8.82193 -6.97574e-07 0)
(8.82193 -3.35465e-07 0)
(8.82193 -1.73829e-07 0)
(8.82193 -1.04356e-07 0)
(8.82193 -5.75572e-08 0)
(8.82193 -4.5912e-08 0)
(8.82193 -3.03222e-08 0)
(8.82193 -2.6221e-08 0)
(8.82193 -2.00209e-08 0)
(8.82193 -1.69541e-08 0)
(8.82193 -1.63415e-08 0)
(8.82193 -1.40292e-08 0)
(8.82193 -1.40979e-08 0)
(8.82193 -1.71004e-08 0)
(8.82193 1.89835e-09 0)
(8.82193 -3.68803e-08 0)
(8.82193 5.18548e-08 0)
(8.82193 -1.81562e-07 0)
(8.82193 -3.65555e-07 0)
(9.70182 -5.12285e-07 0)
(9.70182 -7.1038e-07 0)
(9.70182 -3.52459e-07 0)
(9.70182 -1.849e-07 0)
(9.70182 -1.11911e-07 0)
(9.70182 -6.34846e-08 0)
(9.70182 -4.96043e-08 0)
(9.70182 -3.44458e-08 0)
(9.70182 -2.81486e-08 0)
(9.70182 -2.2486e-08 0)
(9.70182 -1.78681e-08 0)
(9.70182 -1.7766e-08 0)
(9.70182 -1.47182e-08 0)
(9.70182 -1.51111e-08 0)
(9.70182 -1.83556e-08 0)
(9.70182 2.50982e-09 0)
(9.70182 -3.94386e-08 0)
(9.70182 5.48319e-08 0)
(9.70182 -1.81824e-07 0)
(9.70182 -3.5987e-07 0)
(10.4551 -4.69213e-07 0)
(10.4551 -6.72091e-07 0)
(10.4551 -3.41403e-07 0)
(10.4551 -1.81285e-07 0)
(10.4551 -1.11197e-07 0)
(10.4551 -6.50541e-08 0)
(10.4551 -5.03936e-08 0)
(10.4551 -3.69173e-08 0)
(10.4551 -2.88213e-08 0)
(10.4551 -2.42311e-08 0)
(10.4551 -1.81603e-08 0)
(10.4551 -1.88069e-08 0)
(10.4551 -1.49424e-08 0)
(10.4551 -1.59445e-08 0)
(10.4551 -1.87693e-08 0)
(10.4551 2.16e-09 0)
(10.4551 -3.91386e-08 0)
(10.4551 5.28937e-08 0)
(10.4551 -1.70983e-07 0)
(10.4551 -3.29216e-07 0)
(11.0817 -3.97551e-07 0)
(11.0817 -5.89967e-07 0)
(11.0817 -3.04411e-07 0)
(11.0817 -1.63466e-07 0)
(11.0817 -1.02278e-07 0)
(11.0817 -6.20941e-08 0)
(11.0817 -4.81911e-08 0)
(11.0817 -3.75348e-08 0)
(11.0817 -2.81882e-08 0)
(11.0817 -2.51577e-08 0)
(11.0817 -1.78461e-08 0)
(11.0817 -1.94549e-08 0)
(11.0817 -1.47497e-08 0)
(11.0817 -1.66283e-08 0)
(11.0817 -1.83559e-08 0)
(11.0817 7.88594e-10 0)
(11.0817 -3.61365e-08 0)
(11.0817 4.65444e-08 0)
(11.0817 -1.5161e-07 0)
(11.0817 -2.78109e-07 0)
(11.5817 -3.06184e-07 0)
(11.5817 -4.75899e-07 0)
(11.5817 -2.47359e-07 0)
(11.5817 -1.34201e-07 0)
(11.5817 -8.65242e-08 0)
(11.5817 -5.51422e-08 0)
(11.5817 -4.33089e-08 0)
(11.5817 -3.63214e-08 0)
(11.5817 -2.631e-08 0)
(11.5817 -2.52171e-08 0)
(11.5817 -1.6951e-08 0)
(11.5817 -1.9679e-08 0)
(11.5817 -1.41763e-08 0)
(11.5817 -1.71224e-08 0)
(11.5817 -1.7204e-08 0)
(11.5817 -1.41261e-09 0)
(11.5817 -3.09856e-08 0)
(11.5817 3.69073e-08 0)
(11.5817 -1.26593e-07 0)
(11.5817 -2.1289e-07 0)
(11.9551 -2.0523e-07 0)
(11.9551 -3.44583e-07 0)
(11.9551 -1.78822e-07 0)
(11.9551 -9.80173e-08 0)
(11.9551 -6.63824e-08 0)
(11.9551 -4.5354e-08 0)
(11.9551 -3.64253e-08 0)
(11.9551 -3.35242e-08 0)
(11.9551 -2.3373e-08 0)
(11.9551 -2.4428e-08 0)
(11.9551 -1.55315e-08 0)
(11.9551 -1.94465e-08 0)
(11.9551 -1.32622e-08 0)
(11.9551 -1.73348e-08 0)
(11.9551 -1.54761e-08 0)
(11.9551 -4.04809e-09 0)
(11.9551 -2.45209e-08 0)
(11.9551 2.54969e-08 0)
(11.9551 -9.87738e-08 0)
(11.9551 -1.40917e-07 0)
(12.2018 -1.0524e-07 0)
(12.2018 -2.11795e-07 0)
(12.2018 -1.08614e-07 0)
(12.2018 -6.03871e-08 0)
(12.2018 -4.4906e-08 0)
(12.2018 -3.42725e-08 0)
(12.2018 -2.84644e-08 0)
(12.2018 -2.95589e-08 0)
(12.2018 -1.96731e-08 0)
(12.2018 -2.28732e-08 0)
(12.2018 -1.36767e-08 0)
(12.2018 -1.87304e-08 0)
(12.2018 -1.20529e-08 0)
(12.2018 -1.71427e-08 0)
(12.2018 -1.33817e-08 0)
(12.2018 -6.60559e-09 0)
(12.2018 -1.77075e-08 0)
(12.2018 1.39643e-08 0)
(12.2018 -7.0801e-08 0)
(12.2018 -6.98416e-08 0)
(12.3219 -1.61771e-08 0)
(12.3219 -9.25311e-08 0)
(12.3219 -4.62311e-08 0)
(12.3219 -2.66789e-08 0)
(12.3219 -2.51503e-08 0)
(12.3219 -2.34979e-08 0)
(12.3219 -2.04147e-08 0)
(12.3219 -2.49123e-08 0)
(12.3219 -1.55591e-08 0)
(12.3219 -2.06679e-08 0)
(12.3219 -1.14906e-08 0)
(12.3219 -1.75011e-08 0)
(12.3219 -1.05851e-08 0)
(12.3219 -1.641e-08 0)
(12.3219 -1.11286e-08 0)
(12.3219 -8.55885e-09 0)
(12.3219 -1.14604e-08 0)
(12.3219 3.88769e-09 0)
(12.3219 -4.50321e-08 0)
(12.3219 -6.89422e-09 0)
(12.3154 5.31381e-08 0)
(12.3154 5.26932e-10 0)
(12.3154 7.15911e-10 0)
(12.3154 -1.19712e-09 0)
(12.3154 -9.61798e-09 0)
(12.3154 -1.4412e-08 0)
(12.3154 -1.32022e-08 0)
(12.3154 -2.01156e-08 0)
(12.3154 -1.14453e-08 0)
(12.3154 -1.80178e-08 0)
(12.3154 -9.15674e-09 0)
(12.3154 -1.58158e-08 0)
(12.3154 -8.95686e-09 0)
(12.3154 -1.50859e-08 0)
(12.3154 -8.92979e-09 0)
(12.3154 -9.50813e-09 0)
(12.3154 -6.4857e-09 0)
(12.3154 -3.44144e-09 0)
(12.3154 -2.35438e-08 0)
(12.3154 4.17323e-08 0)
(12.1823 9.62254e-08 0)
(12.1823 5.8922e-08 0)
(12.1823 2.7864e-08 0)
(12.1822 1.37478e-08 0)
(12.1823 3.46749e-10 0)
(12.1822 -7.78235e-09 0)
(12.1823 -7.39668e-09 0)
(12.1822 -1.54861e-08 0)
(12.1823 -7.60079e-09 0)
(12.1822 -1.49859e-08 0)
(12.1823 -6.74543e-09 0)
(12.1822 -1.36076e-08 0)
(12.1823 -7.14951e-09 0)
(12.1822 -1.30664e-08 0)
(12.1823 -6.85084e-09 0)
(12.1822 -9.20532e-09 0)
(12.1823 -3.15015e-09 0)
(12.1822 -7.25533e-09 0)
(12.1823 -7.97514e-09 0)
(12.1822 7.15655e-08 0)
(11.9225 1.09029e-07 0)
(11.9225 7.94832e-08 0)
(11.9225 3.50167e-08 0)
(11.9225 1.81536e-08 0)
(11.9225 4.74191e-09 0)
(11.9225 -3.7228e-09 0)
(11.9225 -3.0954e-09 0)
(11.9225 -1.11775e-08 0)
(11.9225 -4.04172e-09 0)
(11.9225 -1.15671e-08 0)
(11.9225 -4.1491e-09 0)
(11.9225 -1.07327e-08 0)
(11.9225 -5.02037e-09 0)
(11.9225 -1.01883e-08 0)
(11.9225 -4.81704e-09 0)
(11.9225 -7.54048e-09 0)
(11.9225 -1.4094e-09 0)
(11.9225 -7.41902e-09 0)
(11.9225 5.47987e-10 0)
(11.9225 8.01453e-08 0)
(11.536 9.27668e-08 0)
(11.536 6.73839e-08 0)
(11.536 2.66323e-08 0)
(11.536 1.41455e-08 0)
(11.536 4.1171e-09 0)
(11.536 -2.35618e-09 0)
(11.536 -1.68687e-09 0)
(11.536 -8.152e-09 0)
(11.536 -2.8669e-09 0)
(11.536 -9.09063e-09 0)
(11.536 -3.54047e-09 0)
(11.536 -8.8204e-09 0)
(11.536 -4.41679e-09 0)
(11.536 -8.18575e-09 0)
(11.536 -3.97358e-09 0)
(11.536 -5.85547e-09 0)
(11.536 -1.02259e-09 0)
(11.536 -5.22075e-09 0)
(11.536 3.12819e-09 0)
(11.536 6.84877e-08 0)
(11.0229 5.44671e-08 0)
(11.0229 3.63823e-08 0)
(11.0229 1.25341e-08 0)
(11.0229 7.03275e-09 0)
(11.0229 2.79765e-09 0)
(11.0229 -1.0877e-09 0)
(11.0229 1.04903e-09 0)
(11.0229 -3.97107e-09 0)
(11.0229 8.65862e-10 0)
(11.0229 -4.2916e-09 0)
(11.0229 2.34657e-10 0)
(11.0229 -3.70838e-09 0)
(11.0229 -8.39671e-10 0)
(11.0229 -2.92251e-09 0)
(11.0229 -1.24011e-09 0)
(11.0229 -1.81769e-09 0)
(11.0229 -7.84802e-10 0)
(11.0229 -1.37063e-09 0)
(11.0229 9.96293e-10 0)
(11.0229 4.13254e-08 0)
(10.3832 1.69115e-08 0)
(10.3832 1.01211e-08 0)
(10.3832 2.61932e-09 0)
(10.3832 1.58036e-09 0)
(10.3832 3.03039e-10 0)
(10.3832 -6.26133e-10 0)
(10.3832 -4.31771e-10 0)
(10.3832 -1.51101e-09 0)
(10.3832 -7.13541e-10 0)
(10.3832 -1.8178e-09 0)
(10.3832 -9.65376e-10 0)
(10.3832 -1.86808e-09 0)
(10.3832 -1.10597e-09 0)
(10.3832 -1.64315e-09 0)
(10.3832 -8.48621e-10 0)
(10.3832 -9.50563e-10 0)
(10.3832 -2.71743e-10 0)
(10.3832 -3.56281e-10 0)
(10.3832 6.73319e-10 0)
(10.3832 1.30707e-08 0)
)
;

boundaryField
{
    top
    {
        type            fixedValue;
        value           uniform (10 0 0);
    }
    bottom
    {
        type            fixedValue;
        value           uniform (0 0 0);
    }
    inlet
    {
        type            zeroGradient;
    }
    outlet
    {
        type            zeroGradient;
    }
    frontAndBack
    {
        type            empty;
    }
}


// ************************************************************************* //
