/*--------------------------------*- C++ -*----------------------------------*\
| =========                 |                                                 |
| \\      /  F ield         | OpenFOAM: The Open Source CFD Toolbox           |
|  \\    /   O peration     | Version:  v1706                                 |
|   \\  /    A nd           | Web:      www.OpenFOAM.com                      |
|    \\/     M anipulation  |                                                 |
\*---------------------------------------------------------------------------*/
FoamFile
{
    version     2.0;
    format      ascii;
    class       surfaceScalarField;
    location    "1.4";
    object      phi;
}
// * * * * * * * * * * * * * * * * * * * * * * * * * * * * * * * * * * * * * //

dimensions      [0 3 -1 0 0 0 0];
oriented        oriented;


internalField   nonuniform List<scalar> 
760
(
4.41619e-05
-2.7795e-11
4.41619e-05
-2.22063e-11
4.41619e-05
-7.49363e-12
4.41619e-05
-5.76681e-12
4.41619e-05
-3.09184e-13
4.41619e-05
-3.26422e-12
4.41619e-05
1.36471e-12
4.41619e-05
-1.89666e-12
4.41619e-05
7.33277e-13
4.41619e-05
-1.42312e-13
4.41619e-05
-7.05545e-13
4.41619e-05
1.34201e-12
4.41619e-05
-1.57654e-12
4.41619e-05
1.76378e-12
4.41619e-05
-1.27948e-12
4.41619e-05
1.0701e-12
4.41619e-05
-4.29905e-13
4.41619e-05
5.97215e-13
4.41619e-05
-5.57141e-12
-1.91064e-11
0.000126153
-8.0742e-11
0.000126153
-7.67971e-11
0.000126153
-2.92341e-11
0.000126153
-1.8142e-11
0.000126153
-4.95503e-12
0.000126153
-8.47258e-12
0.000126153
1.15158e-12
0.000126153
-4.78025e-12
0.000126153
7.50779e-13
0.000126153
-1.22433e-12
0.000126153
-2.07019e-12
0.000126153
1.62435e-12
0.000126153
-4.2556e-12
0.000126153
2.35526e-12
0.000126153
-4.48453e-12
0.000126153
9.47261e-13
0.000126153
-4.52176e-12
0.000126153
1.32981e-12
0.000126153
-2.30303e-11
-5.55277e-11
0.000201811
-1.40195e-10
0.000201811
-1.48269e-10
0.000201811
-6.07079e-11
0.000201811
-3.48849e-11
0.000201811
-1.26746e-11
0.000201811
-1.45736e-11
0.000201811
-3.45652e-13
0.000201811
-7.53411e-12
0.000201811
2.29738e-13
0.000201811
-2.09666e-12
0.000201811
-3.41566e-12
0.000201811
1.88105e-12
0.000201811
-6.52729e-12
0.000201811
2.81853e-12
0.000201811
-7.27601e-12
0.000201811
1.09991e-12
0.000201811
-9.30562e-12
0.000201811
3.79718e-12
0.000201811
-4.60361e-11
-9.6466e-11
0.000271137
-1.95529e-10
0.000271137
-2.2174e-10
0.000271137
-9.60145e-11
0.000271137
-5.3822e-11
0.000271137
-2.17085e-11
0.000271137
-2.11137e-11
0.000271137
-2.40168e-12
0.000271137
-9.93716e-12
0.000271137
-5.09678e-13
0.000271137
-2.39235e-12
0.000271137
-4.56397e-12
0.000271137
2.64031e-12
0.000271137
-8.10114e-12
0.000271137
3.73787e-12
0.000271137
-9.02676e-12
0.000271137
2.04504e-12
0.000271137
-1.34396e-11
0.000271137
7.70953e-12
0.000271137
-6.89629e-11
-1.35321e-10
0.000334131
-2.38637e-10
0.000334131
-2.84888e-10
0.000334131
-1.29154e-10
0.000334131
-7.22228e-11
0.000334131
-3.06362e-11
0.000334131
-2.72558e-11
0.000334131
-4.73795e-12
0.000334131
-1.17101e-11
0.000334131
-1.45503e-12
0.000334131
-2.09915e-12
0.000334131
-5.50103e-12
0.000334131
3.74562e-12
0.000334131
-8.92886e-12
0.000334131
4.85535e-12
0.000334131
-9.68439e-12
0.000334131
3.42324e-12
0.000334131
-1.65302e-11
0.000334131
1.20224e-11
0.000334131
-8.80527e-11
-1.6652e-10
0.000390792
-2.64559e-10
0.000390792
-3.28972e-10
0.000390792
-1.54751e-10
0.000390792
-8.73112e-11
0.000390792
-3.80972e-11
0.000390792
-3.21601e-11
0.000390792
-7.05601e-12
0.000390792
-1.26601e-11
0.000390792
-2.55929e-12
0.000390792
-1.32142e-12
0.000390792
-6.22291e-12
0.000390792
4.94482e-12
0.000390792
-9.0567e-12
0.000390792
5.85201e-12
0.000390792
-9.36259e-12
0.000390792
4.7815e-12
0.000390792
-1.83853e-11
0.000390792
1.56417e-11
0.000390792
-1.01368e-10
-1.86501e-10
0.000441121
-2.71102e-10
0.000441121
-3.48939e-10
0.000441121
-1.68819e-10
0.000441121
-9.67252e-11
0.000441121
-4.29001e-11
0.000441121
-3.51102e-11
0.000441121
-9.02845e-12
0.000441121
-1.26684e-11
0.000441121
-3.72406e-12
0.000441121
-1.8682e-13
0.000441121
-6.71441e-12
0.000441121
6.02429e-12
0.000441121
-8.56322e-12
0.000441121
6.49005e-12
0.000441121
-8.21065e-12
0.000441121
5.74614e-12
0.000441121
-1.88766e-11
0.000441121
1.77714e-11
0.000441121
-1.08207e-10
-1.93482e-10
0.000485117
-2.58661e-10
0.000485117
-3.43518e-10
0.000485117
-1.69291e-10
0.000485117
-9.89357e-11
0.000485117
-4.42361e-11
0.000485117
-3.56246e-11
0.000485117
-1.03718e-11
0.000485117
-1.17037e-11
0.000485117
-4.82841e-12
0.000485117
1.16468e-12
0.000485117
-6.95665e-12
0.000485117
6.81982e-12
0.000485117
-7.55289e-12
0.000485117
6.61816e-12
0.000485117
-6.40999e-12
0.000485117
6.05555e-12
0.000485117
-1.80022e-11
0.000485117
1.79912e-11
0.000485117
-1.0884e-10
-1.87413e-10
0.000522781
-2.29607e-10
0.000522781
-3.14699e-10
0.000522781
-1.56263e-10
0.000522781
-9.35406e-11
0.000522781
-4.18424e-11
0.000522781
-3.35623e-11
0.000522781
-1.09104e-11
0.000522781
-9.84215e-12
0.000522781
-5.76325e-12
0.000522781
2.58837e-12
0.000522781
-6.94808e-12
0.000522781
7.22292e-12
0.000522781
-6.16325e-12
0.000522781
6.16969e-12
0.000522781
-4.18172e-12
0.000522781
5.5735e-12
0.000522781
-1.59242e-11
0.000522781
1.62545e-11
0.000522781
-1.04109e-10
-1.69654e-10
0.000554114
-1.8782e-10
0.000554114
-2.67123e-10
0.000554114
-1.31847e-10
0.000554114
-8.13538e-11
0.000554114
-3.60766e-11
0.000554114
-2.91703e-11
0.000554114
-1.06199e-11
0.000554114
-7.27073e-12
0.000554114
-6.45661e-12
0.000554114
3.94378e-12
0.000554114
-6.71187e-12
0.000554114
7.18467e-12
0.000554114
-4.55729e-12
0.000554114
5.16113e-12
0.000554114
-1.77482e-12
0.000554114
4.3027e-12
0.000554114
-1.2958e-11
0.000554114
1.28285e-11
0.000554114
-9.51609e-11
-1.42662e-10
0.000579114
-1.3813e-10
0.000579114
-2.0725e-10
0.000579114
-9.97568e-11
0.000579114
-6.42616e-11
0.000579114
-2.78689e-11
0.000579114
-2.30589e-11
0.000579114
-9.63538e-12
0.000579114
-4.27391e-12
0.000579114
-6.88492e-12
0.000579114
5.10174e-12
0.000579114
-6.298e-12
0.000579114
6.7121e-12
0.000579114
-2.91138e-12
0.000579114
3.68399e-12
0.000579114
5.48431e-13
0.000579114
2.37575e-12
0.000579114
-9.53008e-12
0.000579114
8.21419e-12
0.000579114
-8.32314e-11
-1.0961e-10
0.000597782
-8.58156e-11
0.000597781
-1.42505e-10
0.000597781
-6.46673e-11
0.000597781
-4.48698e-11
0.000597781
-1.85534e-11
0.000597781
-1.60995e-11
0.000597781
-8.21883e-12
0.000597781
-1.20055e-12
0.000597781
-7.06932e-12
0.000597781
5.95175e-12
0.000597781
-5.77524e-12
0.000597781
5.86002e-12
0.000597781
-1.39906e-12
0.000597781
1.89112e-12
0.000597781
2.54066e-12
0.000597781
3.02367e-14
0.000597781
-6.11499e-12
0.000597781
3.0575e-12
0.000597781
-6.9537e-11
-7.40493e-11
0.000610117
-3.62198e-11
0.000610117
-8.04519e-11
0.000610117
-3.14488e-11
0.000610117
-2.60225e-11
0.000610117
-9.60114e-12
0.000610117
-9.26545e-12
0.000610117
-6.6906e-12
0.000610117
1.58504e-12
0.000610117
-7.0572e-12
0.000610117
6.41005e-12
0.000610117
-5.21652e-12
0.000610117
4.7204e-12
0.000610117
-1.68702e-13
0.000610117
-2.74235e-14
0.000610117
3.9902e-12
0.000610117
-2.42405e-12
0.000610117
-3.1561e-12
0.000610117
-1.93988e-12
0.000610117
-5.52356e-11
-3.95866e-11
0.000616121
5.79899e-12
0.000616121
-2.78727e-11
0.000616121
-4.41057e-12
0.000616121
-1.02519e-11
0.000616121
-2.32129e-12
0.000616121
-3.4444e-12
0.000616121
-5.3429e-12
0.000616121
3.75946e-12
0.000616121
-6.89389e-12
0.000616121
6.42818e-12
0.000616121
-4.67957e-12
0.000616121
3.41364e-12
0.000616121
6.75599e-13
0.000616121
-1.85765e-12
0.000616121
4.75753e-12
0.000616121
-4.65097e-12
0.000616121
-9.90133e-13
0.000616121
-6.08392e-12
0.000616121
-4.13765e-11
-9.56101e-12
0.000615792
3.60861e-11
0.000615792
9.93713e-12
0.000615792
1.34821e-11
0.000615792
6.89604e-13
0.000615792
2.41991e-12
0.000615792
7.29937e-13
0.000615792
-4.35702e-12
0.000615792
5.09172e-12
0.000615792
-6.59413e-12
0.000615792
6.00094e-12
0.000615792
-4.18901e-12
0.000615792
2.08012e-12
0.000615792
1.0899e-12
0.000615792
-3.38033e-12
0.000615792
4.80355e-12
0.000615792
-6.3306e-12
0.000615792
2.16199e-13
0.000615792
-8.79919e-12
0.000615792
-2.8937e-11
1.32196e-11
0.000609131
5.20191e-11
0.000609131
3.02271e-11
0.000609131
2.11073e-11
0.000609131
6.19744e-12
0.000609131
4.37918e-12
0.000609131
2.99705e-12
0.000609131
-3.74245e-12
0.000609131
5.48285e-12
0.000609131
-6.11346e-12
0.000609131
5.17528e-12
0.000609131
-3.71237e-12
0.000609131
8.7749e-13
0.000609131
1.11374e-12
0.000609131
-4.36357e-12
0.000609131
4.22001e-12
0.000609131
-7.16207e-12
0.000609131
5.47894e-13
0.000609131
-9.65473e-12
0.000609131
-1.86197e-11
2.68721e-11
0.000596137
5.24893e-11
0.000596137
3.31785e-11
0.000596137
1.9646e-11
0.000596137
6.89842e-12
0.000596137
3.98882e-12
0.000596137
3.51809e-12
0.000596137
-3.32902e-12
0.000596137
5.00043e-12
0.000596137
-5.33622e-12
0.000596137
4.06467e-12
0.000596137
-3.13662e-12
0.000596137
-9.11874e-15
0.000596137
9.07133e-13
0.000596137
-4.56342e-12
0.000596137
3.26284e-12
0.000596137
-6.86377e-12
0.000596137
3.71343e-13
0.000596137
-8.48625e-12
0.000596137
-1.08905e-11
3.06067e-11
0.000576811
3.93503e-11
0.000576811
2.31875e-11
0.000576811
1.23534e-11
0.000576811
4.53241e-12
0.000576811
2.24857e-12
0.000576811
2.77657e-12
0.000576811
-2.78155e-12
0.000576811
3.79505e-12
0.000576811
-4.08246e-12
0.000576811
2.78272e-12
0.000576811
-2.31188e-12
0.000576811
-4.33023e-13
0.000576811
6.49513e-13
0.000576811
-3.79033e-12
0.000576811
2.20005e-12
0.000576812
-5.29854e-12
0.000576812
1.40173e-13
0.000576812
-5.5586e-12
0.000576812
-5.53397e-12
2.51866e-11
0.000551153
1.68377e-11
0.000551153
8.34756e-12
0.000551153
4.29715e-12
0.000551153
1.44415e-12
0.000551153
5.51454e-13
0.000551153
1.51982e-12
0.000551153
-1.68322e-12
0.000551153
2.20613e-12
0.000551153
-2.1493e-12
0.000551153
1.58052e-12
0.000551153
-1.01482e-12
0.000551153
-1.55376e-13
0.000551153
6.71599e-13
0.000551153
-1.7985e-12
0.000551153
1.52558e-12
0.000551153
-2.27127e-12
0.000551153
6.24879e-13
0.000551153
-1.4121e-12
0.000551153
-1.35354e-12
1.30433e-11
0.000519162
0.000519162
0.000519162
0.000519162
0.000519162
0.000519162
0.000519162
0.000519162
0.000519162
0.000519162
0.000519162
0.000519162
0.000519162
0.000519162
0.000519162
0.000519162
0.000519162
0.000519162
0.000519162
)
;

boundaryField
{
    top
    {
        type            calculated;
        value           uniform 0;
    }
    bottom
    {
        type            calculated;
        value           uniform 0;
    }
    inlet
    {
        type            calculated;
        value           nonuniform List<scalar> 
20
(
-4.41619e-05
-0.000126153
-0.000201811
-0.000271137
-0.000334131
-0.000390792
-0.000441121
-0.000485117
-0.000522781
-0.000554114
-0.000579114
-0.000597782
-0.000610117
-0.000616121
-0.000615792
-0.000609131
-0.000596137
-0.000576811
-0.000551153
-0.000519162
)
;
    }
    outlet
    {
        type            calculated;
        value           nonuniform List<scalar> 
20
(
4.41619e-05
0.000126153
0.000201812
0.000271137
0.000334131
0.000390792
0.000441121
0.000485117
0.000522781
0.000554114
0.000579114
0.000597781
0.000610117
0.000616121
0.000615792
0.000609131
0.000596137
0.000576812
0.000551153
0.000519162
)
;
    }
    frontAndBack
    {
        type            empty;
        value           nonuniform 0();
    }
}


// ************************************************************************* //
