/*--------------------------------*- C++ -*----------------------------------*\
| =========                 |                                                 |
| \\      /  F ield         | OpenFOAM: The Open Source CFD Toolbox           |
|  \\    /   O peration     | Version:  v1706                                 |
|   \\  /    A nd           | Web:      www.OpenFOAM.com                      |
|    \\/     M anipulation  |                                                 |
\*---------------------------------------------------------------------------*/
FoamFile
{
    version     2.0;
    format      ascii;
    class       volVectorField;
    location    "1.4";
    object      U;
}
// * * * * * * * * * * * * * * * * * * * * * * * * * * * * * * * * * * * * * //

dimensions      [0 1 -1 0 0 0 0];


internalField   nonuniform List<vector> 
400
(
(0.883237 -1.28271e-08 0)
(0.883238 -9.26006e-09 0)
(0.883238 -2.90944e-09 0)
(0.883238 -1.93329e-09 0)
(0.883238 -6.11925e-10 0)
(0.883238 -1.05557e-09 0)
(0.883239 1.15422e-10 0)
(0.883238 -9.23987e-10 0)
(0.883239 8.75856e-11 0)
(0.883238 -6.40141e-10 0)
(0.883239 -4.3033e-10 0)
(0.883238 -3.00531e-10 0)
(0.883239 -1.01763e-09 0)
(0.883238 -1.82152e-10 0)
(0.883239 -1.41244e-09 0)
(0.883238 -5.04428e-10 0)
(0.883238 -1.58145e-09 0)
(0.883238 -8.46947e-10 0)
(0.883238 -3.498e-09 0)
(0.883239 -9.31605e-09 0)
(2.52306 -5.1448e-08 0)
(2.52306 -4.44197e-08 0)
(2.52306 -1.54011e-08 0)
(2.52306 -1.11023e-08 0)
(2.52306 -1.39302e-09 0)
(2.52306 -5.89603e-09 0)
(2.52306 1.83493e-09 0)
(2.52306 -3.35695e-09 0)
(2.52306 8.55208e-10 0)
(2.52306 -4.09173e-10 0)
(2.52306 -1.56749e-09 0)
(2.52306 1.91757e-09 0)
(2.52306 -3.06655e-09 0)
(2.52306 2.40812e-09 0)
(2.52306 -2.70375e-09 0)
(2.52306 1.08645e-09 0)
(2.52306 -1.73682e-09 0)
(2.52306 6.05795e-10 0)
(2.52306 -1.25333e-08 0)
(2.52306 -3.45966e-08 0)
(4.03623 -1.09521e-07 0)
(4.03623 -1.09752e-07 0)
(4.03623 -4.31297e-08 0)
(4.03623 -2.52491e-08 0)
(4.03623 -8.70108e-09 0)
(4.03623 -1.10571e-08 0)
(4.03623 1.65909e-10 0)
(4.03623 -6.23538e-09 0)
(4.03623 2.95148e-10 0)
(4.03623 -2.18428e-09 0)
(4.03623 -2.93183e-09 0)
(4.03623 9.51459e-10 0)
(4.03623 -5.81172e-09 0)
(4.03623 1.66502e-09 0)
(4.03623 -6.74493e-09 0)
(4.03623 -5.14119e-11 0)
(4.03623 -8.11138e-09 0)
(4.03623 1.08381e-09 0)
(4.03623 -3.50822e-08 0)
(4.03623 -7.59989e-08 0)
(5.42274 -1.69593e-07 0)
(5.42275 -1.85528e-07 0)
(5.42275 -7.77902e-08 0)
(5.42275 -4.40281e-08 0)
(5.42275 -1.68527e-08 0)
(5.42275 -1.77969e-08 0)
(5.42275 -1.14997e-09 0)
(5.42275 -8.7756e-09 0)
(5.42275 -1.88351e-12 0)
(5.42275 -2.23891e-09 0)
(5.42275 -3.94388e-09 0)
(5.42275 2.36416e-09 0)
(5.42275 -7.33253e-09 0)
(5.42275 3.45067e-09 0)
(5.42275 -8.12694e-09 0)
(5.42275 1.72004e-09 0)
(5.42275 -1.11539e-08 0)
(5.42275 5.81554e-09 0)
(5.42275 -5.75295e-08 0)
(5.42275 -1.16529e-07 0)
(6.68261 -2.20706e-07 0)
(6.68261 -2.56874e-07 0)
(6.68262 -1.13723e-07 0)
(6.68262 -6.34114e-08 0)
(6.68262 -2.63223e-08 0)
(6.68262 -2.43142e-08 0)
(6.68262 -3.48177e-09 0)
(6.68262 -1.09315e-08 0)
(6.68262 -8.49808e-10 0)
(6.68262 -2.29203e-09 0)
(6.68262 -4.95679e-09 0)
(6.68262 3.26611e-09 0)
(6.68262 -8.51832e-09 0)
(6.68262 4.48239e-09 0)
(6.68262 -9.37475e-09 0)
(6.68262 2.96071e-09 0)
(6.68262 -1.49622e-08 0)
(6.68262 1.0218e-08 0)
(6.68262 -7.93588e-08 0)
(6.68262 -1.5301e-07 0)
(7.81583 -2.56062e-07 0)
(7.81583 -3.12288e-07 0)
(7.81584 -1.44397e-07 0)
(7.81584 -8.08617e-08 0)
(7.81584 -3.48618e-08 0)
(7.81584 -3.00486e-08 0)
(7.81584 -5.89083e-09 0)
(7.81584 -1.23329e-08 0)
(7.81584 -1.89088e-09 0)
(7.81584 -1.71934e-09 0)
(7.81584 -5.784e-09 0)
(7.81584 4.48907e-09 0)
(7.81584 -8.97046e-09 0)
(7.81584 5.62523e-09 0)
(7.81584 -9.49347e-09 0)
(7.81584 4.45898e-09 0)
(7.81584 -1.74522e-08 0)
(7.81584 1.44952e-08 0)
(7.81584 -9.57701e-08 0)
(7.81584 -1.79192e-07 0)
(8.82241 -2.72452e-07 0)
(8.82241 -3.45106e-07 0)
(8.82241 -1.65074e-07 0)
(8.82241 -9.36496e-08 0)
(8.82241 -4.12675e-08 0)
(8.82241 -3.41388e-08 0)
(8.82241 -8.11387e-09 0)
(8.82241 -1.28301e-08 0)
(8.82241 -3.04671e-09 0)
(8.82241 -7.21097e-10 0)
(8.82241 -6.38448e-09 0)
(8.82241 5.69083e-09 0)
(8.82241 -8.74973e-09 0)
(8.82241 6.51403e-09 0)
(8.82241 -8.69276e-09 0)
(8.82241 5.73737e-09 0)
(8.82241 -1.86108e-08 0)
(8.82241 1.75944e-08 0)
(8.82241 -1.05773e-07 0)
(8.82241 -1.92826e-07 0)
(9.70234 -2.69129e-07 0)
(9.70234 -3.52293e-07 0)
(9.70234 -1.72644e-07 0)
(9.70234 -9.9749e-08 0)
(9.70234 -4.44886e-08 0)
(9.70234 -3.59704e-08 0)
(9.70234 -9.83123e-09 0)
(9.70234 -1.23554e-08 0)
(9.70234 -4.21167e-09 0)
(9.70234 5.56322e-10 0)
(9.70234 -6.75932e-09 0)
(9.70234 6.66588e-09 0)
(9.70234 -7.97457e-09 0)
(9.70234 6.92785e-09 0)
(9.70234 -7.17166e-09 0)
(9.70234 6.42938e-09 0)
(9.70234 -1.84011e-08 0)
(9.70234 1.88455e-08 0)
(9.70234 -1.0932e-07 0)
(9.70234 -1.93108e-07 0)
(10.4556 -2.47604e-07 0)
(10.4556 -3.34352e-07 0)
(10.4556 -1.66104e-07 0)
(10.4556 -9.8126e-08 0)
(10.4556 -4.3955e-08 0)
(10.4556 -3.5195e-08 0)
(10.4556 -1.07968e-08 0)
(10.4556 -1.09137e-08 0)
(10.4556 -5.25307e-09 0)
(10.4556 1.98133e-09 0)
(10.4556 -6.87387e-09 0)
(10.4556 7.29057e-09 0)
(10.4556 -6.73717e-09 0)
(10.4556 6.78141e-09 0)
(10.4556 -5.09656e-09 0)
(10.4556 6.37035e-09 0)
(10.4556 -1.68546e-08 0)
(10.4556 1.80779e-08 0)
(10.4556 -1.07009e-07 0)
(10.4556 -1.80726e-07 0)
(11.0823 -2.11124e-07 0)
(11.0823 -2.94774e-07 0)
(11.0823 -1.46629e-07 0)
(11.0823 -8.8992e-08 0)
(11.0823 -3.97085e-08 0)
(11.0823 -3.18632e-08 0)
(11.0823 -1.09042e-08 0)
(11.0823 -8.64013e-09 0)
(11.0823 -6.07825e-09 0)
(11.0823 3.40566e-09 0)
(11.0823 -6.74291e-09 0)
(11.0823 7.48125e-09 0)
(11.0823 -5.19754e-09 0)
(11.0823 6.04321e-09 0)
(11.0823 -2.71329e-09 0)
(11.0823 5.48093e-09 0)
(11.0823 -1.42304e-08 0)
(11.0823 1.5405e-08 0)
(11.0823 -9.99037e-08 0)
(11.0823 -1.57679e-07 0)
(11.5823 -1.64172e-07 0)
(11.5823 -2.39324e-07 0)
(11.5823 -1.17274e-07 0)
(11.5823 -7.37634e-08 0)
(11.5823 -3.24212e-08 0)
(11.5823 -2.64207e-08 0)
(11.5823 -1.02119e-08 0)
(11.5823 -5.77703e-09 0)
(11.5823 -6.63871e-09 0)
(11.5823 4.69156e-09 0)
(11.5823 -6.40477e-09 0)
(11.5823 7.21739e-09 0)
(11.5823 -3.53045e-09 0)
(11.5823 4.76807e-09 0)
(11.5823 -2.87661e-10 0)
(11.5823 3.83077e-09 0)
(11.5823 -1.09168e-08 0)
(11.5823 1.12318e-08 0)
(11.5823 -8.92303e-08 0)
(11.5823 -1.2687e-07 0)
(11.9556 -1.11907e-07 0)
(11.9556 -1.75154e-07 0)
(11.9556 -8.24201e-08 0)
(11.9556 -5.47986e-08 0)
(11.9556 -2.32835e-08 0)
(11.9556 -1.96445e-08 0)
(11.9556 -8.9314e-09 0)
(11.9556 -2.65286e-09 0)
(11.9556 -6.93614e-09 0)
(11.9556 5.71701e-09 0)
(11.9556 -5.92226e-09 0)
(11.9556 6.53238e-09 0)
(11.9556 -1.91777e-09 0)
(11.9556 3.0837e-09 0)
(11.9556 1.92027e-09 0)
(11.9556 1.61263e-09 0)
(11.9556 -7.38325e-09 0)
(11.9556 6.15339e-09 0)
(11.9556 -7.62227e-08 0)
(11.9556 -9.17378e-08 0)
(12.2023 -5.97494e-08 0)
(12.2023 -1.09977e-07 0)
(12.2023 -4.70436e-08 0)
(12.2023 -3.4962e-08 0)
(12.2023 -1.37751e-08 0)
(12.2023 -1.25038e-08 0)
(12.2023 -7.37476e-09 0)
(12.2023 3.61641e-10 0)
(12.2023 -7.01072e-09 0)
(12.2023 6.38277e-09 0)
(12.2023 -5.37017e-09 0)
(12.2023 5.50315e-09 0)
(12.2023 -5.23254e-10 0)
(12.2023 1.16596e-09 0)
(12.2023 3.67416e-09 0)
(12.2023 -8.8611e-10 0)
(12.2023 -4.10828e-09 0)
(12.2023 8.667e-10 0)
(12.2023 -6.2065e-08 0)
(12.2023 -5.59342e-08 0)
(12.3224 -1.28746e-08 0)
(12.3224 -5.1156e-08 0)
(12.3224 -1.59364e-08 0)
(12.3224 -1.70766e-08 0)
(12.3224 -5.36257e-09 0)
(12.3224 -5.97627e-09 0)
(12.3224 -5.86756e-09 0)
(12.3224 2.90986e-09 0)
(12.3224 -6.91165e-09 0)
(12.3224 6.6246e-09 0)
(12.3224 -4.81293e-09 0)
(12.3224 4.24499e-09 0)
(12.3224 5.2627e-10 0)
(12.3224 -7.65733e-10 0)
(12.3224 4.79818e-09 0)
(12.3224 -3.31753e-09 0)
(12.3224 -1.48847e-09 0)
(12.3224 -3.88978e-09 0)
(12.3224 -4.78305e-08 0)
(12.3224 -2.29856e-08 0)
(12.3158 2.4093e-08 0)
(12.3158 -4.9526e-09 0)
(12.3158 7.09429e-09 0)
(12.3158 -3.40281e-09 0)
(12.3158 7.95638e-10 0)
(12.3158 -8.64323e-10 0)
(12.3158 -4.68134e-09 0)
(12.3158 4.69841e-09 0)
(12.3158 -6.695e-09 0)
(12.3158 6.40192e-09 0)
(12.3158 -4.31749e-09 0)
(12.3158 2.86649e-09 0)
(12.3158 1.13181e-09 0)
(12.3158 -2.53034e-09 0)
(12.3158 5.16478e-09 0)
(12.3158 -5.39684e-09 0)
(12.3158 1.62082e-10 0)
(12.3158 -7.52466e-09 0)
(12.3158 -3.4601e-08 0)
(12.3158 3.94398e-09 0)
(12.1826 4.7669e-08 0)
(12.1826 2.44019e-08 0)
(12.1826 1.98563e-08 0)
(12.1826 4.82351e-09 0)
(12.1826 4.11881e-09 0)
(12.1826 2.36642e-09 0)
(12.1826 -3.90236e-09 0)
(12.1826 5.55872e-09 0)
(12.1826 -6.32358e-09 0)
(12.1826 5.74803e-09 0)
(12.1826 -3.85475e-09 0)
(12.1826 1.54649e-09 0)
(12.1826 1.31863e-09 0)
(12.1826 -3.85192e-09 0)
(12.1826 4.83881e-09 0)
(12.1826 -6.73815e-09 0)
(12.1826 8.49698e-10 0)
(12.1826 -9.41952e-09 0)
(12.1826 -2.3156e-08 0)
(12.1826 2.24632e-08 0)
(11.9227 5.56034e-08 0)
(11.9227 3.52612e-08 0)
(11.9227 2.23337e-08 0)
(11.9227 7.60502e-09 0)
(11.9227 4.67632e-09 0)
(11.9227 3.75953e-09 0)
(11.9227 -3.50543e-09 0)
(11.9227 5.59618e-09 0)
(11.9227 -5.74025e-09 0)
(11.9227 4.83954e-09 0)
(11.9227 -3.29212e-09 0)
(11.9227 5.20738e-10 0)
(11.9227 1.33219e-09 0)
(11.9227 -4.42742e-09 0)
(11.9227 4.19751e-09 0)
(11.9227 -6.91389e-09 0)
(11.9227 1.03134e-09 0)
(11.9227 -9.00616e-09 0)
(11.9227 -1.40217e-08 0)
(11.9227 3.11154e-08 0)
(11.5362 4.81558e-08 0)
(11.5362 3.03343e-08 0)
(11.5362 1.67094e-08 0)
(11.5362 6.09644e-09 0)
(11.5362 3.309e-09 0)
(11.5362 3.01946e-09 0)
(11.5362 -3.02016e-09 0)
(11.5362 4.06098e-09 0)
(11.5362 -4.85386e-09 0)
(11.5362 3.00241e-09 0)
(11.5362 -3.11938e-09 0)
(11.5362 -7.16776e-10 0)
(11.5362 9.46096e-11 0)
(11.5362 -4.85119e-09 0)
(11.5362 1.76958e-09 0)
(11.5362 -7.12827e-09 0)
(11.5362 -9.00343e-10 0)
(11.5362 -8.59169e-09 0)
(11.5362 -8.83182e-09 0)
(11.5362 2.88115e-08 0)
(11.0231 2.89195e-08 0)
(11.0231 1.5881e-08 0)
(11.0231 8.35058e-09 0)
(11.0231 2.98726e-09 0)
(11.0231 1.23082e-09 0)
(11.0231 2.57224e-09 0)
(11.0231 -2.57561e-09 0)
(11.0231 3.53939e-09 0)
(11.0231 -3.36583e-09 0)
(11.0231 2.53869e-09 0)
(11.0231 -1.54698e-09 0)
(11.0231 -2.06301e-10 0)
(11.0231 1.14274e-09 0)
(11.0231 -2.82112e-09 0)
(11.0231 2.52218e-09 0)
(11.0231 -3.60998e-09 0)
(11.0231 1.01811e-09 0)
(11.0231 -2.84398e-09 0)
(11.0231 -2.78564e-09 0)
(11.0231 2.00015e-08 0)
(10.3832 9.02128e-09 0)
(10.3832 4.46869e-09 0)
(10.3832 1.79148e-09 0)
(10.3832 6.15126e-10 0)
(10.3832 3.0515e-10 0)
(10.3832 2.94392e-10 0)
(10.3832 -6.1739e-10 0)
(10.3832 4.81562e-10 0)
(10.3832 -1.01096e-09 0)
(10.3832 2.58556e-10 0)
(10.3832 -8.32977e-10 0)
(10.3832 -4.51624e-10 0)
(10.3832 -4.346e-10 0)
(10.3832 -1.29427e-09 0)
(10.3832 -3.17444e-10 0)
(10.3832 -1.885e-09 0)
(10.3832 -9.06361e-10 0)
(10.3832 -2.07007e-09 0)
(10.3832 -1.37219e-09 0)
(10.3832 6.25402e-09 0)
)
;

boundaryField
{
    top
    {
        type            fixedValue;
        value           uniform (10 0 0);
    }
    bottom
    {
        type            fixedValue;
        value           uniform (0 0 0);
    }
    inlet
    {
        type            zeroGradient;
    }
    outlet
    {
        type            zeroGradient;
    }
    frontAndBack
    {
        type            empty;
    }
}


// ************************************************************************* //
