/*--------------------------------*- C++ -*----------------------------------*\
| =========                 |                                                 |
| \\      /  F ield         | OpenFOAM: The Open Source CFD Toolbox           |
|  \\    /   O peration     | Version:  v1706                                 |
|   \\  /    A nd           | Web:      www.OpenFOAM.com                      |
|    \\/     M anipulation  |                                                 |
\*---------------------------------------------------------------------------*/
FoamFile
{
    version     2.0;
    format      ascii;
    class       volScalarField;
    location    "0.1";
    object      p;
}
// * * * * * * * * * * * * * * * * * * * * * * * * * * * * * * * * * * * * * //

dimensions      [0 2 -2 0 0 0 0];


internalField   nonuniform List<scalar> 
400
(
98.8442
93.7257
88.6986
83.6139
78.5429
73.4842
68.3963
63.3502
58.2602
53.2136
48.1288
43.0761
37.9981
32.939
27.8664
22.8031
17.7336
12.6683
7.60005
2.53402
98.844
93.7257
88.6986
83.614
78.5429
73.4842
68.3963
63.3502
58.2602
53.2136
48.1288
43.0761
37.9981
32.939
27.8664
22.8031
17.7336
12.6683
7.60005
2.53401
98.8439
93.7256
88.6986
83.614
78.543
73.4842
68.3964
63.3502
58.2602
53.2136
48.1288
43.0761
37.9981
32.939
27.8664
22.8031
17.7336
12.6683
7.60005
2.53401
98.8439
93.7255
88.6986
83.614
78.543
73.4842
68.3964
63.3502
58.2602
53.2136
48.1288
43.0761
37.9981
32.939
27.8664
22.8031
17.7336
12.6683
7.60005
2.53401
98.8438
93.7254
88.6986
83.614
78.543
73.4843
68.3964
63.3502
58.2602
53.2137
48.1288
43.0761
37.9981
32.939
27.8664
22.8031
17.7336
12.6683
7.60005
2.53401
98.8438
93.7254
88.6987
83.614
78.5431
73.4843
68.3964
63.3502
58.2602
53.2137
48.1288
43.0761
37.9981
32.939
27.8664
22.8031
17.7336
12.6683
7.60005
2.53401
98.8437
93.7253
88.6987
83.614
78.5431
73.4843
68.3964
63.3502
58.2602
53.2137
48.1288
43.0761
37.9981
32.939
27.8664
22.8031
17.7336
12.6683
7.60005
2.53401
98.8437
93.7252
88.6987
83.6141
78.5431
73.4843
68.3964
63.3502
58.2602
53.2137
48.1288
43.0761
37.9981
32.939
27.8664
22.8031
17.7336
12.6683
7.60005
2.53401
98.8437
93.7252
88.6987
83.6141
78.5432
73.4844
68.3964
63.3503
58.2602
53.2137
48.1288
43.0761
37.9981
32.939
27.8664
22.8031
17.7336
12.6683
7.60005
2.53401
98.8436
93.7251
88.6987
83.6141
78.5432
73.4844
68.3964
63.3503
58.2602
53.2137
48.1288
43.0761
37.9981
32.939
27.8664
22.8031
17.7336
12.6683
7.60005
2.53401
98.8436
93.725
88.6986
83.6141
78.5432
73.4844
68.3964
63.3503
58.2602
53.2137
48.1288
43.0761
37.9981
32.939
27.8664
22.8031
17.7336
12.6683
7.60005
2.53401
98.8436
93.725
88.6986
83.6141
78.5432
73.4844
68.3964
63.3503
58.2602
53.2137
48.1288
43.0761
37.9981
32.939
27.8664
22.8031
17.7336
12.6683
7.60005
2.53401
98.8436
93.7249
88.6986
83.6142
78.5433
73.4845
68.3964
63.3503
58.2602
53.2137
48.1288
43.0761
37.9981
32.939
27.8664
22.8031
17.7336
12.6683
7.60005
2.53401
98.8435
93.7248
88.6985
83.6142
78.5433
73.4845
68.3965
63.3503
58.2602
53.2137
48.1288
43.0761
37.9981
32.939
27.8664
22.8031
17.7336
12.6683
7.60005
2.53401
98.8435
93.7248
88.6985
83.6142
78.5433
73.4846
68.3965
63.3503
58.2603
53.2137
48.1288
43.0761
37.9981
32.939
27.8664
22.8031
17.7336
12.6683
7.60005
2.53401
98.8435
93.7248
88.6984
83.6143
78.5433
73.4846
68.3965
63.3503
58.2603
53.2137
48.1288
43.0761
37.9981
32.939
27.8664
22.8031
17.7336
12.6683
7.60005
2.53401
98.8436
93.7248
88.6984
83.6143
78.5434
73.4846
68.3965
63.3503
58.2603
53.2137
48.1288
43.0761
37.9981
32.939
27.8664
22.8031
17.7336
12.6683
7.60005
2.53401
98.8436
93.7248
88.6984
83.6143
78.5434
73.4847
68.3966
63.3504
58.2603
53.2137
48.1288
43.0761
37.9981
32.939
27.8664
22.8031
17.7336
12.6683
7.60006
2.53401
98.8436
93.7248
88.6984
83.6144
78.5434
73.4847
68.3966
63.3504
58.2603
53.2137
48.1288
43.0761
37.9981
32.939
27.8664
22.8031
17.7336
12.6683
7.60006
2.53401
98.8436
93.7248
88.6984
83.6144
78.5435
73.4847
68.3966
63.3504
58.2603
53.2137
48.1288
43.0761
37.9981
32.939
27.8664
22.8031
17.7336
12.6683
7.60006
2.53401
)
;

boundaryField
{
    top
    {
        type            zeroGradient;
    }
    bottom
    {
        type            zeroGradient;
    }
    inlet
    {
        type            fixedValue;
        value           uniform 101.325;
    }
    outlet
    {
        type            fixedValue;
        value           uniform 0;
    }
    frontAndBack
    {
        type            empty;
    }
}


// ************************************************************************* //
