/*--------------------------------*- C++ -*----------------------------------*\
| =========                 |                                                 |
| \\      /  F ield         | OpenFOAM: The Open Source CFD Toolbox           |
|  \\    /   O peration     | Version:  v1706                                 |
|   \\  /    A nd           | Web:      www.OpenFOAM.com                      |
|    \\/     M anipulation  |                                                 |
\*---------------------------------------------------------------------------*/
FoamFile
{
    version     2.0;
    format      ascii;
    class       surfaceScalarField;
    location    "0.1";
    object      phi;
}
// * * * * * * * * * * * * * * * * * * * * * * * * * * * * * * * * * * * * * //

dimensions      [0 3 -1 0 0 0 0];
oriented        oriented;


internalField   nonuniform List<scalar> 
760
(
2.54628e-05
-8.91335e-08
2.5455e-05
7.85171e-09
2.54747e-05
-1.96952e-08
2.54699e-05
4.79662e-09
2.54541e-05
1.58335e-08
2.54611e-05
-7.01845e-09
2.54407e-05
2.04352e-08
2.54551e-05
-1.44554e-08
2.54387e-05
1.64266e-08
2.54515e-05
-1.27948e-08
2.54406e-05
1.08618e-08
2.54488e-05
-8.12822e-09
2.54428e-05
5.93488e-09
2.54469e-05
-4.05255e-09
2.54442e-05
2.67627e-09
2.54459e-05
-1.67551e-09
2.54448e-05
1.11444e-09
2.54457e-05
-9.44137e-10
2.5445e-05
6.70503e-10
-8.73716e-10
7.04409e-05
-2.45368e-07
7.04686e-05
-1.98834e-08
7.04911e-05
-4.21139e-08
7.04831e-05
1.27772e-08
7.04459e-05
5.29458e-08
7.0448e-05
-9.01709e-09
7.04148e-05
5.3567e-08
7.04301e-05
-2.96605e-08
7.04088e-05
3.77091e-08
7.0423e-05
-2.70075e-08
7.04106e-05
2.3254e-08
7.04193e-05
-1.67855e-08
7.04131e-05
1.21258e-08
7.04171e-05
-8.04187e-09
7.04146e-05
5.09942e-09
7.04159e-05
-2.98983e-09
7.04151e-05
1.98563e-09
7.04161e-05
-1.99912e-09
7.04155e-05
1.35785e-09
-2.22414e-09
0.000110316
-4.14079e-07
0.000110387
-9.11002e-08
0.0001104
-5.45852e-08
0.000110389
2.34918e-08
0.000110338
1.03942e-07
0.000110328
8.38718e-10
0.000110294
8.75324e-08
0.0001103
-3.56711e-08
0.000110284
5.37034e-08
0.000110291
-3.44334e-08
0.000110284
3.04449e-08
0.000110288
-2.09489e-08
0.000110286
1.49626e-08
0.000110287
-9.5314e-09
0.000110286
5.70578e-09
0.000110286
-2.96006e-09
0.000110286
1.97036e-09
0.000110287
-2.67635e-09
0.000110287
1.73574e-09
-3.5512e-09
0.000145903
-5.72468e-07
0.000146001
-1.89597e-07
0.000146004
-5.7223e-08
0.000145988
3.9154e-08
0.000145929
1.62987e-07
0.000145908
2.20827e-08
0.000145876
1.1948e-07
0.000145873
-3.27427e-08
0.000145863
6.40505e-08
0.000145864
-3.55958e-08
0.000145861
3.29547e-08
0.000145862
-2.12878e-08
0.000145862
1.50478e-08
0.000145861
-9.05512e-09
0.000145862
4.95112e-09
0.000145861
-1.95785e-09
0.000145862
1.3322e-09
0.000145862
-3.11758e-09
0.000145862
1.94664e-09
-4.73506e-09
0.000177972
-7.00549e-07
0.000178081
-2.98449e-07
0.000178074
-5.05279e-08
0.000178052
6.07095e-08
0.000177991
2.24068e-07
0.00017796
5.31524e-08
0.000177933
1.46962e-07
0.000177922
-2.17666e-08
0.000177917
6.87633e-08
0.000177913
-3.13185e-08
0.000177914
3.14638e-08
0.000177912
-1.85434e-08
0.000177914
1.29975e-08
0.000177912
-7.12417e-09
0.000177913
3.24029e-09
0.000177912
-3.15015e-10
0.000177913
3.09192e-10
0.000177913
-3.43399e-09
0.000177913
2.08943e-09
-5.646e-09
0.000207248
-7.83079e-07
0.000207351
-4.01702e-07
0.000207336
-3.53361e-08
0.000207309
8.78366e-08
0.000207252
2.8145e-07
0.000207213
9.14386e-08
0.000207192
1.68019e-07
0.000207175
-4.23999e-09
0.000207175
6.81742e-08
0.000207167
-2.26626e-08
0.000207171
2.67495e-08
0.000207166
-1.34814e-08
0.00020717
9.40171e-09
0.000207167
-4.20372e-09
0.000207169
9.26857e-10
0.000207167
1.68405e-09
0.000207168
-8.97313e-10
0.000207169
-3.69842e-09
0.000207169
2.21791e-09
-6.17514e-09
0.000234397
-8.10842e-07
0.000234481
-4.8592e-07
0.000234458
-1.27886e-08
0.000234427
1.19026e-07
0.000234379
3.30025e-07
0.000234337
1.33452e-07
0.000234324
1.81208e-07
0.000234301
1.78494e-08
0.000234307
6.28529e-08
0.000234295
-1.08398e-08
0.000234302
1.96205e-08
0.000234295
-6.84876e-09
0.0002343
4.79903e-09
0.000234297
-7.00697e-10
0.000234299
-1.69038e-09
0.000234297
3.80312e-09
0.000234298
-2.12864e-09
0.000234299
-3.94246e-09
0.000234298
2.34401e-09
-6.25791e-09
0.00026001
-7.81312e-07
0.000260065
-5.41506e-07
0.000260037
1.55841e-08
0.000260004
1.51737e-07
0.000259969
3.65592e-07
0.000259927
1.75124e-07
0.000259923
1.85613e-07
0.000259898
4.21959e-08
0.000259908
5.3531e-08
0.000259894
2.876e-09
0.000259903
1.08667e-08
0.000259895
6.59482e-10
0.0002599
-3.38603e-10
0.000259897
3.04067e-09
0.000259899
-4.36624e-09
0.000259897
5.85219e-09
0.000259898
-3.26967e-09
0.000259899
-4.15841e-09
0.000259898
2.44794e-09
-5.88471e-09
0.000284588
-6.98632e-07
0.00028461
-5.63541e-07
0.000284578
4.77396e-08
0.000284547
1.82659e-07
0.000284528
3.85098e-07
0.000284491
2.12206e-07
0.000284495
1.80883e-07
0.000284471
6.63805e-08
0.000284484
4.10516e-08
0.000284469
1.72279e-08
0.000284479
1.22884e-09
0.000284471
8.41923e-09
0.000284476
-5.60915e-09
0.000284473
6.73677e-09
0.000284475
-6.90485e-09
0.000284473
7.68393e-09
0.000284474
-4.24595e-09
0.000284475
-4.30659e-09
0.000284475
2.49191e-09
-5.1014e-09
0.000308528
-5.72887e-07
0.000308516
-5.52009e-07
0.000308483
8.10565e-08
0.000308458
2.08095e-07
0.000308456
3.86829e-07
0.000308427
2.40731e-07
0.000308441
1.67281e-07
0.000308419
8.80853e-08
0.000308434
2.63441e-08
0.00030842
3.1041e-08
0.00030843
-8.61259e-09
0.000308422
1.58851e-08
0.000308428
-1.06754e-08
0.000308424
1.01583e-08
0.000308426
-9.15369e-09
0.000308425
9.18947e-09
0.000308426
-5.01772e-09
0.000308426
-4.32723e-09
0.000308426
2.43422e-09
-4.00176e-09
0.000332103
-4.18767e-07
0.000332062
-5.11334e-07
0.000332031
1.12397e-07
0.000332014
2.24443e-07
0.000332031
3.70553e-07
0.000332014
2.57474e-07
0.000332035
1.45744e-07
0.000332018
1.05296e-07
0.000332034
1.04245e-08
0.000332022
4.32723e-08
0.000332031
-1.80326e-08
0.000332025
2.25888e-08
0.000332029
-1.52541e-08
0.000332026
1.31217e-08
0.000332028
-1.09971e-08
0.000332027
1.02939e-08
0.000332028
-5.57168e-09
0.000332027
-4.1562e-09
0.000332028
2.2417e-09
-2.71422e-09
0.000355451
-2.53767e-07
0.000355389
-4.49307e-07
0.000355363
1.38341e-07
0.000355359
2.2874e-07
0.000355392
3.37586e-07
0.000355389
2.60361e-07
0.000355416
1.17918e-07
0.000355405
1.16473e-07
0.000355421
-5.59388e-09
0.000355412
5.30437e-08
0.00035542
-2.64471e-08
0.000355414
2.81315e-08
0.000355418
-1.91011e-08
0.000355416
1.54789e-08
0.000355417
-1.23495e-08
0.000355417
1.09516e-08
0.000355417
-5.91111e-09
0.000355417
-3.74291e-09
0.000355417
1.89913e-09
-1.38485e-09
0.000378561
-9.61123e-08
0.000378487
-3.75529e-07
0.00037847
1.5559e-07
0.000378479
2.19216e-07
0.000378526
2.90777e-07
0.000378538
2.48768e-07
0.000378569
8.61518e-08
0.000378565
1.20668e-07
0.00037858
-2.04904e-08
0.000378573
5.96584e-08
0.00037858
-3.3295e-08
0.000378576
3.21711e-08
0.000378579
-2.19963e-08
0.000378578
1.71069e-08
0.000378578
-1.31481e-08
0.000378578
1.11406e-08
0.000378578
-6.04493e-09
0.000378578
-3.06864e-09
0.000378578
1.41531e-09
-1.58546e-10
0.000401261
3.73602e-08
0.000401186
-2.99606e-07
0.00040118
1.61485e-07
0.000401203
1.95778e-07
0.00040126
2.34362e-07
0.000401285
2.23662e-07
0.000401317
5.34105e-08
0.00040132
1.17577e-07
0.000401333
-3.29477e-08
0.00040133
6.26007e-08
0.000401335
-3.80221e-08
0.000401332
3.44065e-08
0.000401334
-2.37272e-08
0.000401333
1.78958e-08
0.000401334
-1.33448e-08
0.000401334
1.08565e-08
0.000401334
-5.97696e-09
0.000401333
-2.16304e-09
0.000401333
8.26127e-10
8.39278e-10
0.000423217
1.33163e-07
0.000423147
-2.29364e-07
0.000423154
1.54542e-07
0.000423189
1.60355e-07
0.00042325
1.73683e-07
0.000423286
1.87551e-07
0.000423317
2.30778e-08
0.000423327
1.07513e-07
0.000423335
-4.15964e-08
0.000423336
6.15209e-08
0.000423338
-4.00747e-08
0.000423338
3.45619e-08
0.000423339
-2.40756e-08
0.000423339
1.77362e-08
0.000423338
-1.28964e-08
0.000423339
1.01044e-08
0.000423339
-5.69641e-09
0.000423338
-1.11582e-09
0.000423338
1.95395e-10
1.51813e-09
0.000443927
1.8277e-07
0.000443867
-1.69357e-07
0.000443887
1.34881e-07
0.00044393
1.17018e-07
0.000443989
1.14734e-07
0.000444032
1.44241e-07
0.000444057
-1.3569e-09
0.000444073
9.13096e-08
0.000444076
-4.51048e-08
0.000444082
5.62086e-08
0.00044408
-3.8906e-08
0.000444083
3.23695e-08
0.000444081
-2.28054e-08
0.000444083
1.65047e-08
0.000444081
-1.17518e-08
0.000444083
8.88869e-09
0.000444082
-5.17114e-09
0.000444081
-8.06258e-11
0.000444082
-3.85616e-10
1.83142e-09
0.00046273
1.83739e-07
0.00046268
-1.19914e-07
0.000462711
1.04423e-07
0.000462756
7.1829e-08
0.000462807
6.35556e-08
0.000462853
9.84088e-08
0.000462868
-1.67209e-08
0.000462889
7.01615e-08
0.000462887
-4.23152e-08
0.000462896
4.65603e-08
0.000462891
-3.40003e-08
0.000462896
2.75565e-08
0.000462893
-1.96549e-08
0.000462895
1.4049e-08
0.000462894
-9.83675e-09
0.000462895
7.20036e-09
0.000462894
-4.34478e-09
0.000462894
7.32085e-10
0.000462894
-7.99236e-10
1.77487e-09
0.000478819
1.40217e-07
0.000478776
-7.69069e-08
0.000478814
6.67339e-08
0.000478854
3.23849e-08
0.000478892
2.55019e-08
0.000478935
5.50469e-08
0.000478939
-2.06474e-08
0.000478964
4.54271e-08
0.000478954
-3.24097e-08
0.000478968
3.25506e-08
0.000478959
-2.49092e-08
0.000478966
1.98345e-08
0.000478961
-1.43319e-08
0.000478965
1.01708e-08
0.000478962
-7.03445e-09
0.000478964
5.00006e-09
0.000478963
-3.13788e-09
0.000478963
1.07585e-09
0.000478963
-9.03722e-10
1.3687e-09
0.000491265
6.25205e-08
0.00049122
-3.25678e-08
0.000491261
2.63513e-08
0.000491286
7.05393e-09
0.000491307
4.50755e-09
0.000491343
1.8866e-08
0.000491335
-1.19993e-08
0.000491362
1.84364e-08
0.000491344
-1.50667e-08
0.000491363
1.42036e-08
0.000491349
-1.12929e-08
0.00049136
8.89828e-09
0.000491352
-6.5133e-09
0.000491358
4.61158e-09
0.000491354
-3.16155e-09
0.000491357
2.19801e-09
0.000491355
-1.43881e-09
0.000491355
6.94059e-10
0.000491355
-5.33287e-10
6.47267e-10
0.000499023
0.00049899
0.000499016
0.000499024
0.000499028
0.000499047
0.000499035
0.000499053
0.000499038
0.000499052
0.000499041
0.00049905
0.000499044
0.000499048
0.000499045
0.000499047
0.000499046
0.000499046
0.000499046
)
;

boundaryField
{
    top
    {
        type            calculated;
        value           uniform 0;
    }
    bottom
    {
        type            calculated;
        value           uniform 0;
    }
    inlet
    {
        type            calculated;
        value           nonuniform List<scalar> 
20
(
-2.53737e-05
-7.02847e-05
-0.000110147
-0.000145744
-0.000177844
-0.000207165
-0.000234369
-0.000260039
-0.000284671
-0.000308654
-0.000332257
-0.000355616
-0.000378718
-0.000401395
-0.000423313
-0.000443977
-0.000462731
-0.000478776
-0.000491187
-0.00049896
)
;
    }
    outlet
    {
        type            calculated;
        value           nonuniform List<scalar> 
20
(
2.54459e-05
7.04168e-05
0.000110288
0.000145863
0.000177914
0.000207169
0.000234299
0.000259898
0.000284474
0.000308425
0.000332026
0.000355416
0.000378577
0.000401333
0.000423338
0.000444081
0.000462894
0.000478963
0.000491356
0.000499047
)
;
    }
    frontAndBack
    {
        type            empty;
        value           nonuniform 0();
    }
}


// ************************************************************************* //
