/*--------------------------------*- C++ -*----------------------------------*\
| =========                 |                                                 |
| \\      /  F ield         | OpenFOAM: The Open Source CFD Toolbox           |
|  \\    /   O peration     | Version:  v1706                                 |
|   \\  /    A nd           | Web:      www.OpenFOAM.com                      |
|    \\/     M anipulation  |                                                 |
\*---------------------------------------------------------------------------*/
FoamFile
{
    version     2.0;
    format      ascii;
    class       volVectorField;
    location    "0.1";
    object      U;
}
// * * * * * * * * * * * * * * * * * * * * * * * * * * * * * * * * * * * * * //

dimensions      [0 1 -1 0 0 0 0];


internalField   nonuniform List<vector> 
400
(
(0.508145 -4.10058e-05 0)
(0.509308 8.06081e-06 0)
(0.509527 -1.02669e-05 0)
(0.509159 2.23617e-06 0)
(0.509642 6.26325e-06 0)
(0.5087 -4.36962e-06 0)
(0.50944 9.67217e-06 0)
(0.508553 -7.74018e-06 0)
(0.509278 8.33733e-06 0)
(0.508619 -6.75037e-06 0)
(0.509142 5.69299e-06 0)
(0.508728 -4.31954e-06 0)
(0.509035 3.16266e-06 0)
(0.508814 -2.18287e-06 0)
(0.508965 1.45549e-06 0)
(0.508868 -9.33929e-07 0)
(0.508923 6.19928e-07 0)
(0.508897 -4.9092e-07 0)
(0.50891 3.45822e-07 0)
(0.50891 -4.35104e-07 0)
(1.40672 -0.000159439 0)
(1.40931 2.94959e-06 0)
(1.4104 -3.21804e-05 0)
(1.40878 7.92363e-06 0)
(1.41055 3.05469e-05 0)
(1.40756 -1.00551e-05 0)
(1.4099 3.57726e-05 0)
(1.40725 -2.31934e-05 0)
(1.40938 2.73431e-05 0)
(1.4075 -2.06652e-05 0)
(1.40897 1.76034e-05 0)
(1.40783 -1.29914e-05 0)
(1.40866 9.43942e-06 0)
(1.40807 -6.37186e-06 0)
(1.40847 4.1401e-06 0)
(1.40822 -2.53259e-06 0)
(1.40836 1.68688e-06 0)
(1.40829 -1.50781e-06 0)
(1.40832 1.05298e-06 0)
(1.40832 -1.49327e-06 0)
(2.20397 -0.000326495 0)
(2.20705 -4.68103e-05 0)
(2.2094 -4.99021e-05 0)
(2.20612 1.71196e-05 0)
(2.20944 7.52644e-05 0)
(2.20434 -6.77756e-06 0)
(2.20832 7.00048e-05 0)
(2.204 -3.44573e-05 0)
(2.20743 4.64975e-05 0)
(2.20446 -3.19071e-05 0)
(2.20674 2.77004e-05 0)
(2.205 -1.96168e-05 0)
(2.20626 1.40908e-05 0)
(2.20538 -9.19511e-06 0)
(2.20596 5.69771e-06 0)
(2.20559 -3.19992e-06 0)
(2.2058 2.12045e-06 0)
(2.2057 -2.3777e-06 0)
(2.20575 1.57484e-06 0)
(2.20575 -2.89238e-06 0)
(2.91592 -0.000497852 0)
(2.91857 -0.000134972 0)
(2.92245 -5.82084e-05 0)
(2.91724 3.00025e-05 0)
(2.92229 0.000132015 0)
(2.91514 8.66687e-06 0)
(2.92071 0.000104235 0)
(2.91489 -3.64143e-05 0)
(2.91947 6.02962e-05 0)
(2.91557 -3.65243e-05 0)
(2.91853 3.28125e-05 0)
(2.9163 -2.20086e-05 0)
(2.91789 1.56345e-05 0)
(2.91679 -9.73589e-06 0)
(2.91752 5.62977e-06 0)
(2.91706 -2.66893e-06 0)
(2.91731 1.78182e-06 0)
(2.9172 -2.94213e-06 0)
(2.91725 1.87019e-06 0)
(2.91725 -4.19322e-06 0)
(3.55791 -0.000646485 0)
(3.55934 -0.000243161 0)
(3.56486 -5.60391e-05 0)
(3.55764 4.8542e-05 0)
(3.56447 0.000193775 0)
(3.55545 3.53334e-05 0)
(3.56249 0.000134643 0)
(3.55538 -2.92157e-05 0)
(3.56093 6.78515e-05 0)
(3.55629 -3.47677e-05 0)
(3.55977 3.31674e-05 0)
(3.55717 -2.06336e-05 0)
(3.55901 1.4511e-05 0)
(3.55775 -8.41423e-06 0)
(3.55858 4.3026e-06 0)
(3.55806 -1.26807e-06 0)
(3.55835 8.93712e-07 0)
(3.55821 -3.29891e-06 0)
(3.55828 2.02805e-06 0)
(3.55827 -5.27928e-06 0)
(4.14435 -0.000754842 0)
(4.14394 -0.000353221 0)
(4.15108 -4.48091e-05 0)
(4.1419 7.30637e-05 0)
(4.15047 0.000254378 0)
(4.13986 7.08316e-05 0)
(4.1482 0.000159294 0)
(4.14004 -1.44553e-05 0)
(4.14637 6.97385e-05 0)
(4.14117 -2.79571e-05 0)
(4.14504 2.98186e-05 0)
(4.14218 -1.65037e-05 0)
(4.14418 1.15196e-05 0)
(4.14282 -5.86059e-06 0)
(4.14371 2.19648e-06 0)
(4.14316 6.26062e-07 0)
(4.14347 -2.71326e-07 0)
(4.14332 -3.57276e-06 0)
(4.1434 2.1539e-06 0)
(4.14337 -6.01886e-06 0)
(4.68842 -0.000811421 0)
(4.68582 -0.000449987 0)
(4.6944 -2.56265e-05 0)
(4.68348 0.000102709 0)
(4.69362 0.000308516 0)
(4.6818 0.000111963 0)
(4.69121 0.000176692 0)
(4.68229 5.9246e-06 0)
(4.6892 6.65966e-05 0)
(4.6836 -1.7384e-05 0)
(4.68774 2.36809e-05 0)
(4.68472 -1.04642e-05 0)
(4.68682 7.28634e-06 0)
(4.68539 -2.55012e-06 0)
(4.68632 -3.39647e-07 0)
(4.68574 2.73987e-06 0)
(4.68607 -1.52515e-06 0)
(4.6859 -3.82351e-06 0)
(4.686 2.28278e-06 0)
(4.68596 -6.33284e-06 0)
(5.20183 -0.000810337 0)
(5.19692 -0.000521789 0)
(5.20666 2.28714e-07 0)
(5.19435 0.000135388 0)
(5.20583 0.000351501 0)
(5.19319 0.000154877 0)
(5.20343 0.000185654 0)
(5.19403 2.97496e-05 0)
(5.20133 5.90779e-05 0)
(5.19551 -4.29382e-06 0)
(5.19979 1.55482e-05 0)
(5.19669 -3.22892e-06 0)
(5.19883 2.30791e-06 0)
(5.19739 1.14961e-06 0)
(5.19833 -3.04042e-06 0)
(5.19774 4.86538e-06 0)
(5.19808 -2.73414e-06 0)
(5.19789 -4.06033e-06 0)
(5.19801 2.40657e-06 0)
(5.19795 -6.18223e-06 0)
(5.69446 -0.000752417 0)
(5.68742 -0.000561266 0)
(5.69796 3.10285e-05 0)
(5.6847 0.000168087 0)
(5.6972 0.000379643 0)
(5.68418 0.000195318 0)
(5.69498 0.000185513 0)
(5.68539 5.46247e-05 0)
(5.69289 4.79583e-05 0)
(5.68699 1.00478e-05 0)
(5.69132 6.17595e-06 0)
(5.68821 4.55078e-06 0)
(5.69036 -2.98733e-06 0)
(5.68891 4.93151e-06 0)
(5.68985 -5.69047e-06 0)
(5.68925 6.83727e-06 0)
(5.68962 -3.80618e-06 0)
(5.68941 -4.2559e-06 0)
(5.68954 2.49169e-06 0)
(5.68946 -5.58552e-06 0)
(6.17412 -0.000645013 0)
(6.16535 -0.000565971 0)
(6.17628 6.44456e-05 0)
(6.16257 0.000197191 0)
(6.17574 0.000390511 0)
(6.16277 0.000229061 0)
(6.17386 0.000176209 0)
(6.16433 7.81307e-05 0)
(6.17186 3.41243e-05 0)
(6.16602 2.44124e-05 0)
(6.17032 -3.72601e-06 0)
(6.16725 1.22904e-05 0)
(6.16937 -8.23246e-06 0)
(6.16794 8.54141e-06 0)
(6.16888 -8.11731e-06 0)
(6.16828 8.5285e-06 0)
(6.16865 -4.68581e-06 0)
(6.16842 -4.357e-06 0)
(6.16857 2.495e-06 0)
(6.16848 -4.61498e-06 0)
(6.64619 -0.00050092 0)
(6.63627 -0.0005383 0)
(6.64719 9.75623e-05 0)
(6.63358 0.00021892 0)
(6.64701 0.000383104 0)
(6.63449 0.000252396 0)
(6.6456 0.000158328 0)
(6.63638 9.80518e-05 0)
(6.64378 1.85486e-05 0)
(6.63811 3.76789e-05 0)
(6.64231 -1.35061e-05 0)
(6.63932 1.94832e-05 0)
(6.64138 -1.31197e-05 0)
(6.64 1.17747e-05 0)
(6.64091 -1.01881e-05 0)
(6.64031 9.84808e-06 0)
(6.6407 -5.34863e-06 0)
(6.64045 -4.29749e-06 0)
(6.64062 2.37628e-06 0)
(6.64051 -3.38574e-06 0)
(7.11337 -0.000336735 0)
(7.10301 -0.000484697 0)
(7.11352 0.00012702 0)
(7.10053 0.000229853 0)
(7.11382 0.000357958 0)
(7.10211 0.00026258 0)
(7.11297 0.000133157 0)
(7.10425 0.000112572 0)
(7.11139 2.29341e-06 0)
(7.10599 4.88792e-05 0)
(7.11001 -2.25635e-05 0)
(7.10716 2.56978e-05 0)
(7.10913 -1.73887e-05 0)
(7.1078 1.44677e-05 0)
(7.10869 -1.18038e-05 0)
(7.1081 1.07368e-05 0)
(7.1085 -5.79217e-06 0)
(7.10823 -4.01541e-06 0)
(7.1084 2.10938e-06 0)
(7.1083 -2.03973e-06 0)
(7.57543 -0.000170862 0)
(7.56535 -0.000414281 0)
(7.57511 0.000149345 0)
(7.56322 0.000227494 0)
(7.57596 0.000317174 0)
(7.56535 0.000258206 0)
(7.57569 0.000102705 0)
(7.56765 0.000120422 0)
(7.57439 -1.34737e-05 0)
(7.56934 5.72217e-05 0)
(7.57314 -3.03288e-05 0)
(7.57045 3.05658e-05 0)
(7.57232 -2.08106e-05 0)
(7.57105 1.64873e-05 0)
(7.5719 -1.28918e-05 0)
(7.57133 1.11622e-05 0)
(7.57173 -6.02526e-06 0)
(7.57145 -3.47167e-06 0)
(7.57162 1.69007e-06 0)
(7.57153 -7.27353e-07 0)
(8.02896 -2.1341e-05 0)
(8.01984 -0.000337121 0)
(8.02856 0.000161436 0)
(8.01816 0.000210812 0)
(8.02997 0.000264351 0)
(8.02068 0.000239433 0)
(8.03024 6.96581e-05 0)
(8.02302 0.000120973 0)
(8.02923 -2.74812e-05 0)
(8.02462 6.2104e-05 0)
(8.02812 -3.62494e-05 0)
(8.02563 3.3771e-05 0)
(8.02738 -2.31738e-05 0)
(8.0262 1.77205e-05 0)
(8.02699 -1.3399e-05 0)
(8.02645 1.11132e-05 0)
(8.02684 -6.05717e-06 0)
(8.02656 -2.66803e-06 0)
(8.02673 1.14043e-06 0)
(8.02664 4.11898e-07 0)
(8.46733 9.6294e-05 0)
(8.4597 -0.000262405 0)
(8.46716 0.000161121 0)
(8.45854 0.00018066 0)
(8.46904 0.000204364 0)
(8.46123 0.000208052 0)
(8.46975 3.72335e-05 0)
(8.46347 0.000114268 0)
(8.46902 -3.83904e-05 0)
(8.46492 6.31172e-05 0)
(8.46808 -3.97864e-05 0)
(8.46583 3.50405e-05 0)
(8.46742 -2.42744e-05 0)
(8.46633 1.80667e-05 0)
(8.46707 -1.32864e-05 0)
(8.46656 1.05946e-05 0)
(8.46694 -5.88822e-06 0)
(8.46666 -1.66102e-06 0)
(8.46682 5.0966e-07 0)
(8.46674 1.26744e-06 0)
(8.8806 0.000170722 0)
(8.87481 -0.000196696 0)
(8.88084 0.00014762 0)
(8.87416 0.000140001 0)
(8.88304 0.000142981 0)
(8.87678 0.000167295 0)
(8.88404 8.93542e-06 0)
(8.87879 0.000100924 0)
(8.88356 -4.48403e-05 0)
(8.88003 6.00017e-05 0)
(8.88278 -4.03982e-05 0)
(8.88081 3.41157e-05 0)
(8.88221 -2.38948e-05 0)
(8.88125 1.7418e-05 0)
(8.88191 -1.25134e-05 0)
(8.88144 9.61622e-06 0)
(8.8818 -5.49978e-06 0)
(8.88153 -5.70611e-07 0)
(8.88168 -1.25551e-07 0)
(8.88162 1.77038e-06 0)
(9.25569 0.00019548 0)
(9.25183 -0.000142272 0)
(9.25635 0.000121637 0)
(9.25161 9.38404e-05 0)
(9.25863 8.63106e-05 0)
(9.25393 0.000121306 0)
(9.25972 -1.16669e-05 0)
(9.25557 8.18052e-05 0)
(9.25944 -4.539e-05 0)
(9.25656 5.24653e-05 0)
(9.25884 -3.74333e-05 0)
(9.25719 3.06426e-05 0)
(9.25838 -2.17253e-05 0)
(9.25755 1.55981e-05 0)
(9.25812 -1.09933e-05 0)
(9.25772 8.1597e-06 0)
(9.25803 -4.83666e-06 0)
(9.2578 4.1329e-07 0)
(9.25792 -6.57388e-07 0)
(9.25787 1.89074e-06 0)
(9.57659 0.000170041 0)
(9.57451 -9.62155e-05 0)
(9.57752 8.59263e-05 0)
(9.57458 4.97386e-05 0)
(9.57956 4.06495e-05 0)
(9.57638 7.50028e-05 0)
(9.58056 -2.12689e-05 0)
(9.57756 5.78835e-05 0)
(9.58042 -3.86449e-05 0)
(9.57826 4.01139e-05 0)
(9.57999 -3.01142e-05 0)
(9.57872 2.41168e-05 0)
(9.57965 -1.73242e-05 0)
(9.579 1.23144e-05 0)
(9.57945 -8.5525e-06 0)
(9.57913 6.15432e-06 0)
(9.57938 -3.79272e-06 0)
(9.57919 1.02059e-06 0)
(9.57929 -9.22116e-07 0)
(9.57925 1.63447e-06 0)
(9.82482 0.00010487 0)
(9.8241 -5.33863e-05 0)
(9.82569 4.57542e-05 0)
(9.82428 1.61176e-05 0)
(9.82717 1.10079e-05 0)
(9.82539 3.42405e-05 0)
(9.82788 -1.84238e-05 0)
(9.82607 3.13757e-05 0)
(9.82783 -2.4536e-05 0)
(9.82647 2.3548e-05 0)
(9.82758 -1.84835e-05 0)
(9.82675 1.45904e-05 0)
(9.82736 -1.06206e-05 0)
(9.82693 7.51462e-06 0)
(9.82723 -5.16394e-06 0)
(9.82702 3.61519e-06 0)
(9.82718 -2.3313e-06 0)
(9.82706 1.01072e-06 0)
(9.82712 -7.96333e-07 0)
(9.8271 1.03109e-06 0)
(9.9799 3.23729e-05 0)
(9.97992 -1.61517e-05 0)
(9.98033 1.30061e-05 0)
(9.98003 1.96598e-06 0)
(9.98091 6.71403e-07 0)
(9.98039 8.27069e-06 0)
(9.98118 -6.88505e-06 0)
(9.98058 8.99082e-06 0)
(9.98118 -7.92435e-06 0)
(9.9807 7.2033e-06 0)
(9.9811 -5.84129e-06 0)
(9.98079 4.57892e-06 0)
(9.98102 -3.37413e-06 0)
(9.98086 2.37899e-06 0)
(9.98097 -1.623e-06 0)
(9.98089 1.12124e-06 0)
(9.98095 -7.41603e-07 0)
(9.98091 4.06694e-07 0)
(9.98093 -2.92614e-07 0)
(9.98092 3.47585e-07 0)
)
;

boundaryField
{
    top
    {
        type            fixedValue;
        value           uniform (10 0 0);
    }
    bottom
    {
        type            fixedValue;
        value           uniform (0 0 0);
    }
    inlet
    {
        type            zeroGradient;
    }
    outlet
    {
        type            zeroGradient;
    }
    frontAndBack
    {
        type            empty;
    }
}


// ************************************************************************* //
