/*--------------------------------*- C++ -*----------------------------------*\
| =========                 |                                                 |
| \\      /  F ield         | OpenFOAM: The Open Source CFD Toolbox           |
|  \\    /   O peration     | Version:  v1706                                 |
|   \\  /    A nd           | Web:      www.OpenFOAM.com                      |
|    \\/     M anipulation  |                                                 |
\*---------------------------------------------------------------------------*/
FoamFile
{
    version     2.0;
    format      ascii;
    class       surfaceScalarField;
    location    "1.8";
    object      phi;
}
// * * * * * * * * * * * * * * * * * * * * * * * * * * * * * * * * * * * * * //

dimensions      [0 3 -1 0 0 0 0];
oriented        oriented;


internalField   nonuniform List<scalar> 
760
(
4.41635e-05
-8.20559e-12
4.41635e-05
-6.76774e-12
4.41635e-05
2.59883e-12
4.41635e-05
-5.96859e-12
4.41635e-05
6.57715e-12
4.41635e-05
-5.1843e-12
4.41635e-05
7.25406e-12
4.41635e-05
-2.71304e-12
4.41635e-05
6.57536e-12
4.41635e-05
1.07236e-12
4.41635e-05
6.31233e-12
4.41635e-05
5.41778e-12
4.41635e-05
8.08483e-12
4.41635e-05
1.00344e-11
4.41635e-05
1.28514e-11
4.41635e-05
1.58806e-11
4.41635e-05
2.00484e-11
4.41635e-05
2.22031e-11
4.41635e-05
2.23582e-11
2.06985e-11
0.000126158
-2.49283e-11
0.000126158
-2.14989e-11
0.000126158
3.74437e-13
0.000126158
-1.17184e-11
0.000126158
1.06714e-11
0.000126158
-8.3796e-12
0.000126158
1.32425e-11
0.000126158
-3.05791e-12
0.000126158
1.31769e-11
0.000126158
4.62533e-12
0.000126158
1.41051e-11
0.000126158
1.36527e-11
0.000126158
1.91263e-11
0.000126158
2.42463e-11
0.000126158
3.05928e-11
0.000126158
3.83974e-11
0.000126158
4.73147e-11
0.000126158
5.33574e-11
0.000126158
4.82039e-11
3.72759e-11
0.000201819
-4.37956e-11
0.000201819
-4.07754e-11
0.000201819
-5.20562e-12
0.000201819
-1.71221e-11
0.000201819
1.24618e-11
0.000201819
-9.67812e-12
0.000201819
1.74771e-11
0.000201819
-1.17628e-12
0.000201819
1.88949e-11
0.000201819
1.02751e-11
0.000201819
2.22138e-11
0.000201819
2.40437e-11
0.000201819
3.18746e-11
0.000201819
4.12416e-11
0.000201819
5.15668e-11
0.000201819
6.52864e-11
0.000201819
7.94557e-11
0.000201819
9.05635e-11
0.000201819
7.65728e-11
5.21216e-11
0.000271148
-6.15466e-11
0.000271148
-6.06854e-11
0.000271148
-1.27445e-11
0.000271148
-2.16452e-11
0.000271148
1.23002e-11
0.000271148
-9.18966e-12
0.000271148
2.00538e-11
0.000271148
2.5614e-12
0.000271148
2.36709e-11
0.000271148
1.74279e-11
0.000271148
3.03492e-11
0.000271148
3.57578e-11
0.000271148
4.56534e-11
0.000271148
5.98218e-11
0.000271148
7.4472e-11
0.000271148
9.48106e-11
0.000271148
1.14522e-10
0.000271148
1.31658e-10
0.000271148
1.07384e-10
6.76745e-11
0.000334144
-7.56217e-11
0.000334144
-7.81859e-11
0.000334144
-2.03925e-11
0.000334144
-2.54117e-11
0.000334144
1.10663e-11
0.000334144
-7.86724e-12
0.000334144
2.13542e-11
0.000334144
6.91792e-12
0.000334144
2.7275e-11
0.000334144
2.46849e-11
0.000334144
3.7473e-11
0.000334144
4.68867e-11
0.000334144
5.83521e-11
0.000334144
7.72109e-11
0.000334144
9.57896e-11
0.000334144
1.22393e-10
0.000334144
1.47199e-10
0.000334144
1.70429e-10
0.000334144
1.36029e-10
8.1668e-11
0.000390807
-8.43974e-11
0.000390808
-9.08904e-11
0.000390808
-2.66724e-11
0.000390808
-2.79153e-11
0.000390808
9.33085e-12
0.000390808
-5.861e-12
0.000390808
2.16638e-11
0.000390808
1.15263e-11
0.000390808
2.97936e-11
0.000390808
3.15812e-11
0.000390808
4.34249e-11
0.000390808
5.6909e-11
0.000390808
6.95005e-11
0.000390808
9.25603e-11
0.000390808
1.14669e-10
0.000390808
1.46862e-10
0.000390808
1.76235e-10
0.000390808
2.0495e-10
0.000390808
1.61867e-10
9.4839e-11
0.000441138
-8.7083e-11
0.000441138
-9.73485e-11
0.000441138
-3.04476e-11
0.000441138
-2.87572e-11
0.000441138
7.59662e-12
0.000441138
-3.3237e-12
0.000441138
2.12288e-11
0.000441138
1.60404e-11
0.000441138
3.12748e-11
0.000441138
3.76946e-11
0.000441138
4.80102e-11
0.000441138
6.52937e-11
0.000441138
7.85832e-11
0.000441138
1.05144e-10
0.000441138
1.30235e-10
0.000441138
1.66949e-10
0.000441138
2.00305e-10
0.000441138
2.33471e-10
0.000441138
1.83757e-10
1.06847e-10
0.000485136
-8.3684e-11
0.000485136
-9.70689e-11
0.000485136
-3.10937e-11
0.000485136
-2.76603e-11
0.000485136
6.20734e-12
0.000485136
-3.33421e-13
0.000485136
2.02333e-11
0.000485136
2.02428e-11
0.000485136
3.17826e-11
0.000485136
4.27553e-11
0.000485136
5.11366e-11
0.000485136
7.17387e-11
0.000485136
8.53938e-11
0.000485136
1.14548e-10
0.000485136
1.42032e-10
0.000485136
1.81976e-10
0.000485136
2.18602e-10
0.000485136
2.54931e-10
0.000485136
2.00911e-10
1.17362e-10
0.000522801
-7.48384e-11
0.000522801
-9.04338e-11
0.000522801
-2.85341e-11
0.000522801
-2.46121e-11
0.000522801
5.35163e-12
0.000522801
2.99737e-12
0.000522801
1.88385e-11
0.000522801
2.39642e-11
0.000522801
3.13834e-11
0.000522801
4.66185e-11
0.000522801
5.27466e-11
0.000522801
7.60605e-11
0.000522801
8.96873e-11
0.000522801
1.2052e-10
0.000522801
1.49676e-10
0.000522801
1.91523e-10
0.000522801
2.30711e-10
0.000522801
2.68656e-10
0.000522801
2.12687e-10
1.25919e-10
0.000554134
-6.16923e-11
0.000554134
-7.8565e-11
0.000554134
-2.32218e-11
0.000554134
-1.98937e-11
0.000554134
5.03688e-12
0.000554134
6.49482e-12
0.000554134
1.71181e-11
0.000554134
2.70432e-11
0.000554134
3.01353e-11
0.000554134
4.91169e-11
0.000554134
5.28522e-11
0.000554134
7.81416e-11
0.000554134
9.13537e-11
0.000554134
1.22915e-10
0.000554134
1.52963e-10
0.000554134
1.95333e-10
0.000554134
2.36172e-10
0.000554134
2.74225e-10
0.000554134
2.18506e-10
1.31898e-10
0.000579134
-4.5734e-11
0.000579134
-6.31173e-11
0.000579134
-1.60323e-11
0.000579134
-1.40558e-11
0.000579134
5.11504e-12
0.000579134
9.91629e-12
0.000579134
1.51196e-11
0.000579134
2.93332e-11
0.000579134
2.80865e-11
0.000579134
5.01743e-11
0.000579134
5.14195e-11
0.000579134
7.7936e-11
0.000579134
9.03385e-11
0.000579134
1.21692e-10
0.000579134
1.51786e-10
0.000579134
1.93332e-10
0.000579134
2.34744e-10
0.000579134
2.71488e-10
0.000579134
2.17945e-10
1.34638e-10
0.000597801
-2.8642e-11
0.000597801
-4.60517e-11
0.000597801
-8.1079e-12
0.000597801
-7.83215e-12
0.000597801
5.32833e-12
0.000597801
1.29701e-11
0.000597801
1.28576e-11
0.000597801
3.06998e-11
0.000597801
2.52937e-11
0.000597801
4.97451e-11
0.000597801
4.84839e-11
0.000597801
7.54644e-11
0.000597801
8.66568e-11
0.000597801
1.16919e-10
0.000597801
1.46159e-10
0.000597801
1.85629e-10
0.000597801
2.26402e-10
0.000597801
2.60576e-10
0.000597801
2.10793e-10
1.33503e-10
0.000610136
-1.21557e-11
0.000610136
-2.94046e-11
0.000610136
-6.61299e-13
0.000610136
-2.01657e-12
0.000610136
5.38015e-12
0.000610136
1.53514e-11
0.000610136
1.03413e-11
0.000610136
3.10235e-11
0.000610136
2.18351e-11
0.000610136
4.78234e-11
0.000610136
4.41317e-11
0.000610136
7.08139e-11
0.000610136
8.04063e-11
0.000610136
1.08769e-10
0.000610136
1.36228e-10
0.000610136
1.72509e-10
0.000610136
2.11324e-10
0.000610136
2.41902e-10
0.000610136
1.97079e-10
1.27958e-10
0.000616138
2.09461e-12
0.000616138
-1.50238e-11
0.000616138
5.21777e-12
0.000616138
2.67554e-12
0.000616138
5.01584e-12
0.000616138
1.67823e-11
0.000616138
7.60498e-12
0.000616138
3.0203e-11
0.000616138
1.78208e-11
0.000616138
4.44294e-11
0.000616138
3.84942e-11
0.000616138
6.41182e-11
0.000616138
7.1756e-11
0.000616138
9.75011e-11
0.000616138
1.2226e-10
0.000616138
1.54402e-10
0.000616138
1.89883e-10
0.000616138
2.16099e-10
0.000616138
1.77056e-10
1.17613e-10
0.000615808
1.2675e-11
0.000615808
-4.36225e-12
0.000615808
8.76982e-12
0.000615808
5.73703e-12
0.000615808
4.09803e-12
0.000615808
1.70578e-11
0.000615808
4.73745e-12
0.000615808
2.81811e-11
0.000615808
1.3416e-11
0.000615808
3.96331e-11
0.000615808
3.17831e-11
0.000615808
5.55908e-11
0.000615808
6.10081e-11
0.000615808
8.35034e-11
0.000615808
1.0471e-10
0.000615808
1.31949e-10
0.000615808
1.6277e-10
0.000615808
1.84187e-10
0.000615808
1.51311e-10
1.02328e-10
0.000609144
1.85903e-11
0.000609144
1.84193e-12
0.000609144
9.69822e-12
0.000609144
6.9658e-12
0.000609144
2.69919e-12
0.000609144
1.60603e-11
0.000609144
1.95725e-12
0.000609144
2.49283e-11
0.000609144
8.92935e-12
0.000609144
3.3554e-11
0.000609144
2.43818e-11
0.000609144
4.55656e-11
0.000609144
4.86874e-11
0.000609144
6.73939e-11
0.000609144
8.43651e-11
0.000609144
1.0612e-10
0.000609144
1.31157e-10
0.000609144
1.47718e-10
0.000609144
1.21076e-10
8.26626e-11
0.000596148
1.92859e-11
0.000596148
3.6235e-12
0.000596148
8.26277e-12
0.000596148
6.4698e-12
0.000596148
9.86809e-13
0.000596148
1.37641e-11
0.000596148
-5.43444e-13
0.000596148
2.04094e-11
0.000596148
4.55034e-12
0.000596148
2.62211e-11
0.000596148
1.64916e-11
0.000596148
3.41793e-11
0.000596148
3.50389e-11
0.000596148
4.94901e-11
0.000596148
6.16778e-11
0.000596148
7.75775e-11
0.000596148
9.59019e-11
0.000596148
1.07401e-10
0.000596148
8.69419e-11
5.91445e-11
0.000576819
1.5079e-11
0.000576819
2.38697e-12
0.000576819
5.32855e-12
0.000576819
4.72547e-12
0.000576819
-2.52097e-13
0.000576819
1.01794e-11
0.000576819
-1.77763e-12
0.000576819
1.46661e-11
0.000576819
1.54011e-12
0.000576819
1.81066e-11
0.000576819
9.70077e-12
0.000576819
2.26845e-11
0.000576819
2.21979e-11
0.000576819
3.20815e-11
0.000576819
3.97225e-11
0.000576819
5.00742e-11
0.000576819
6.17995e-11
0.000576819
6.90529e-11
0.000576819
5.47959e-11
3.59114e-11
0.000551158
7.00361e-12
0.000551158
2.62833e-13
0.000551158
2.10015e-12
0.000551158
2.36335e-12
0.000551158
-7.85746e-13
0.000551158
5.56555e-12
0.000551158
-1.81774e-12
0.000551158
7.84023e-12
0.000551158
-2.54294e-13
0.000551158
9.25089e-12
0.000551158
3.84507e-12
0.000551158
1.10001e-11
0.000551158
1.00023e-11
0.000551158
1.50642e-11
0.000551158
1.83948e-11
0.000551158
2.32989e-11
0.000551158
2.86158e-11
0.000551158
3.19566e-11
0.000551158
2.44022e-11
1.42909e-11
0.000519164
0.000519164
0.000519164
0.000519164
0.000519164
0.000519164
0.000519164
0.000519164
0.000519164
0.000519164
0.000519164
0.000519164
0.000519164
0.000519164
0.000519164
0.000519164
0.000519164
0.000519164
0.000519164
)
;

boundaryField
{
    top
    {
        type            calculated;
        value           uniform 0;
    }
    bottom
    {
        type            calculated;
        value           uniform 0;
    }
    inlet
    {
        type            calculated;
        value           nonuniform List<scalar> 
20
(
-4.41635e-05
-0.000126158
-0.000201819
-0.000271148
-0.000334144
-0.000390807
-0.000441138
-0.000485136
-0.000522801
-0.000554134
-0.000579134
-0.000597802
-0.000610136
-0.000616138
-0.000615808
-0.000609144
-0.000596148
-0.000576819
-0.000551158
-0.000519164
)
;
    }
    outlet
    {
        type            calculated;
        value           nonuniform List<scalar> 
20
(
4.41636e-05
0.000126158
0.000201819
0.000271148
0.000334144
0.000390808
0.000441138
0.000485136
0.000522801
0.000554134
0.000579134
0.000597801
0.000610136
0.000616138
0.000615808
0.000609144
0.000596148
0.000576819
0.000551158
0.000519164
)
;
    }
    frontAndBack
    {
        type            empty;
        value           nonuniform 0();
    }
}


// ************************************************************************* //
