/*--------------------------------*- C++ -*----------------------------------*\
| =========                 |                                                 |
| \\      /  F ield         | OpenFOAM: The Open Source CFD Toolbox           |
|  \\    /   O peration     | Version:  v1706                                 |
|   \\  /    A nd           | Web:      www.OpenFOAM.com                      |
|    \\/     M anipulation  |                                                 |
\*---------------------------------------------------------------------------*/
FoamFile
{
    version     2.0;
    format      ascii;
    class       volVectorField;
    location    "1.8";
    object      U;
}
// * * * * * * * * * * * * * * * * * * * * * * * * * * * * * * * * * * * * * //

dimensions      [0 1 -1 0 0 0 0];


internalField   nonuniform List<vector> 
400
(
(0.883271 -3.67481e-09 0)
(0.883271 -2.75836e-09 0)
(0.883271 1.67208e-09 0)
(0.883271 -2.9208e-09 0)
(0.883271 3.47412e-09 0)
(0.883271 -2.6729e-09 0)
(0.883271 3.74863e-09 0)
(0.883271 -1.47008e-09 0)
(0.883271 3.35949e-09 0)
(0.883271 4.287e-10 0)
(0.883271 3.16609e-09 0)
(0.883271 2.58879e-09 0)
(0.883271 3.96404e-09 0)
(0.883271 4.86846e-09 0)
(0.883271 6.27109e-09 0)
(0.883271 7.70784e-09 0)
(0.883271 9.79271e-09 0)
(0.883271 1.07542e-08 0)
(0.883271 1.11965e-08 0)
(0.883271 1.0777e-08 0)
(2.52316 -1.56414e-08 0)
(2.52316 -1.28915e-08 0)
(2.52316 2.41221e-09 0)
(2.52316 -8.8743e-09 0)
(2.52316 9.16855e-09 0)
(2.52316 -7.15688e-09 0)
(2.52316 1.0608e-08 0)
(2.52316 -3.31744e-09 0)
(2.52316 1.00309e-08 0)
(2.52316 2.44848e-09 0)
(2.52316 1.0118e-08 0)
(2.52316 9.11335e-09 0)
(2.52316 1.32396e-08 0)
(2.52316 1.65754e-08 0)
(2.52316 2.10708e-08 0)
(2.52316 2.623e-08 0)
(2.52316 3.27095e-08 0)
(2.52316 3.64542e-08 0)
(2.52316 3.47392e-08 0)
(2.52316 2.94999e-08 0)
(4.03639 -3.39432e-08 0)
(4.03639 -3.02689e-08 0)
(4.03639 -1.68729e-09 0)
(4.03639 -1.43896e-08 0)
(4.03639 1.20115e-08 0)
(4.03639 -9.29924e-09 0)
(4.03639 1.56773e-08 0)
(4.03639 -2.44689e-09 0)
(4.03639 1.62074e-08 0)
(4.03639 7.1459e-09 0)
(4.03639 1.8153e-08 0)
(4.03639 1.85818e-08 0)
(4.03639 2.53169e-08 0)
(4.03639 3.24186e-08 0)
(4.03639 4.07194e-08 0)
(4.03639 5.13204e-08 0)
(4.03639 6.28359e-08 0)
(4.03639 7.11394e-08 0)
(4.03639 6.20904e-08 0)
(4.03639 4.51556e-08 0)
(5.42296 -5.31872e-08 0)
(5.42296 -5.08083e-08 0)
(5.42296 -8.68928e-09 0)
(5.42296 -1.94883e-08 0)
(5.42296 1.27061e-08 0)
(5.42296 -9.68299e-09 0)
(5.42296 1.9066e-08 0)
(5.42296 4.35678e-10 0)
(5.42296 2.14959e-08 0)
(5.42296 1.366e-08 0)
(5.42296 2.6373e-08 0)
(5.42296 2.97957e-08 0)
(5.42296 3.87486e-08 0)
(5.42296 5.04523e-08 0)
(5.42296 6.29387e-08 0)
(5.42296 7.9911e-08 0)
(5.42296 9.68521e-08 0)
(5.42296 1.10816e-07 0)
(5.42296 9.18074e-08 0)
(5.42296 5.99162e-08 0)
(6.68288 -6.97027e-08 0)
(6.68288 -7.03136e-08 0)
(6.68288 -1.67291e-08 0)
(6.68288 -2.37714e-08 0)
(6.68288 1.18599e-08 0)
(6.68288 -8.72825e-09 0)
(6.68288 2.09518e-08 0)
(6.68288 4.59787e-09 0)
(6.68288 2.57004e-08 0)
(6.68288 2.10268e-08 0)
(6.68288 3.40974e-08 0)
(6.68288 4.14226e-08 0)
(6.68288 5.219e-08 0)
(6.68288 6.87395e-08 0)
(6.68288 8.54033e-08 0)
(6.68288 1.08943e-07 0)
(6.68288 1.3126e-07 0)
(6.68288 1.51447e-07 0)
(6.68288 1.21926e-07 0)
(6.68288 7.46428e-08 0)
(7.81615 -8.14224e-08 0)
(7.81615 -8.59234e-08 0)
(7.81615 -2.406e-08 0)
(7.81615 -2.70271e-08 0)
(7.81615 1.02308e-08 0)
(7.81615 -7.01748e-09 0)
(7.81615 2.16924e-08 0)
(7.81615 9.18497e-09 0)
(7.81615 2.87574e-08 0)
(7.81615 2.82351e-08 0)
(7.81615 4.07052e-08 0)
(7.81615 5.2166e-08 0)
(7.81615 6.42759e-08 0)
(7.81615 8.53565e-08 0)
(7.81615 1.05788e-07 0)
(7.81615 1.35367e-07 0)
(7.81615 1.62556e-07 0)
(7.81615 1.88697e-07 0)
(7.81615 1.49569e-07 0)
(7.81615 8.83372e-08 0)
(8.82276 -8.72359e-08 0)
(8.82276 -9.57578e-08 0)
(8.82276 -2.93312e-08 0)
(8.82276 -2.88095e-08 0)
(8.82276 8.38687e-09 0)
(8.82276 -4.73454e-09 0)
(8.82276 2.15743e-08 0)
(8.82276 1.38009e-08 0)
(8.82276 3.0738e-08 0)
(8.82276 3.48073e-08 0)
(8.82276 4.59963e-08 0)
(8.82276 6.14517e-08 0)
(8.82276 7.44614e-08 0)
(8.82276 9.94415e-08 0)
(8.82276 1.23139e-07 0)
(8.82276 1.57837e-07 0)
(8.82276 1.89307e-07 0)
(8.82276 2.20536e-07 0)
(8.82276 1.73655e-07 0)
(8.82276 1.00979e-07 0)
(9.70272 -8.67934e-08 0)
(9.70272 -9.88679e-08 0)
(9.70272 -3.16432e-08 0)
(9.70272 -2.87365e-08 0)
(9.70272 6.75644e-09 0)
(9.70272 -1.95915e-09 0)
(9.70272 2.0818e-08 0)
(9.70272 1.81992e-08 0)
(9.70272 3.17151e-08 0)
(9.70272 4.04399e-08 0)
(9.70272 4.98621e-08 0)
(9.70272 6.89189e-08 0)
(9.70272 8.24542e-08 0)
(9.70272 1.10504e-07 0)
(9.70272 1.36906e-07 0)
(9.70272 1.75517e-07 0)
(9.70272 2.10621e-07 0)
(9.70272 2.45729e-07 0)
(9.70272 1.93371e-07 0)
(9.70272 1.12347e-07 0)
(10.456 -8.04476e-08 0)
(10.456 -9.5226e-08 0)
(10.456 -3.06419e-08 0)
(10.456 -2.66407e-08 0)
(10.456 5.60938e-09 0)
(10.456 1.22877e-09 0)
(10.456 1.95948e-08 0)
(10.456 2.21957e-08 0)
(10.456 3.17536e-08 0)
(10.456 4.49349e-08 0)
(10.456 5.22344e-08 0)
(10.456 7.43328e-08 0)
(10.456 8.80384e-08 0)
(10.456 1.18231e-07 0)
(10.456 1.46684e-07 0)
(10.456 1.87874e-07 0)
(10.456 2.25919e-07 0)
(10.456 2.63446e-07 0)
(10.456 2.07998e-07 0)
(10.456 1.22025e-07 0)
(11.0827 -6.91271e-08 0)
(11.0827 -8.56275e-08 0)
(11.0827 -2.65318e-08 0)
(11.0827 -2.26542e-08 0)
(11.0827 5.04379e-09 0)
(11.0827 4.69124e-09 0)
(11.0827 1.80218e-08 0)
(11.0827 2.5629e-08 0)
(11.0827 3.09159e-08 0)
(11.0827 4.81394e-08 0)
(11.0827 5.30929e-08 0)
(11.0827 7.75487e-08 0)
(11.0827 9.10387e-08 0)
(11.0827 1.2243e-07 0)
(11.0827 1.52184e-07 0)
(11.0827 1.9458e-07 0)
(11.0827 2.34769e-07 0)
(11.0827 2.73153e-07 0)
(11.0827 2.16917e-07 0)
(11.0827 1.29455e-07 0)
(11.5827 -5.41865e-08 0)
(11.5827 -7.15149e-08 0)
(11.5827 -2.00116e-08 0)
(11.5827 -1.72087e-08 0)
(11.5827 4.98217e-09 0)
(11.5827 8.2176e-09 0)
(11.5827 1.61581e-08 0)
(11.5827 2.83471e-08 0)
(11.5827 2.9255e-08 0)
(11.5827 4.99331e-08 0)
(11.5827 5.24263e-08 0)
(11.5827 7.84878e-08 0)
(11.5827 9.13679e-08 0)
(11.5827 1.2301e-07 0)
(11.5827 1.53248e-07 0)
(11.5827 1.95474e-07 0)
(11.5827 2.36821e-07 0)
(11.5827 2.74567e-07 0)
(11.5827 2.19619e-07 0)
(11.5827 1.33979e-07 0)
(11.956 -3.72459e-08 0)
(11.956 -5.47558e-08 0)
(11.956 -1.21375e-08 0)
(11.956 -1.0975e-08 0)
(11.956 5.20602e-09 0)
(11.956 1.15329e-08 0)
(11.956 1.40289e-08 0)
(11.956 3.02077e-08 0)
(11.956 2.68206e-08 0)
(11.956 5.02538e-08 0)
(11.956 5.02328e-08 0)
(11.956 7.71375e-08 0)
(11.956 8.90088e-08 0)
(11.956 1.19984e-07 0)
(11.956 1.49831e-07 0)
(11.956 1.90578e-07 0)
(11.956 2.31927e-07 0)
(11.956 2.6768e-07 0)
(11.956 2.1578e-07 0)
(11.956 1.34931e-07 0)
(12.2027 -2.00475e-08 0)
(12.2027 -3.74089e-08 0)
(12.2027 -4.14018e-09 0)
(12.2027 -4.75306e-09 0)
(12.2027 5.41773e-09 0)
(12.2027 1.43275e-08 0)
(12.2027 1.16399e-08 0)
(12.2027 3.10808e-08 0)
(12.2027 2.36763e-08 0)
(12.2027 4.90773e-08 0)
(12.2027 4.65673e-08 0)
(12.2027 7.35516e-08 0)
(12.2027 8.40143e-08 0)
(12.2027 1.13475e-07 0)
(12.2027 1.42009e-07 0)
(12.2027 1.80086e-07 0)
(12.2027 2.20161e-07 0)
(12.2027 2.52759e-07 0)
(12.2027 2.053e-07 0)
(12.2027 1.31708e-07 0)
(12.3228 -4.30861e-09 0)
(12.3228 -2.14771e-08 0)
(12.3228 2.77724e-09 0)
(12.3228 6.65996e-10 0)
(12.3228 5.32011e-09 0)
(12.3228 1.62977e-08 0)
(12.3228 9.00483e-09 0)
(12.3228 3.08541e-08 0)
(12.3228 1.99117e-08 0)
(12.3228 4.64113e-08 0)
(12.3228 4.15368e-08 0)
(12.3228 6.78416e-08 0)
(12.3228 7.65147e-08 0)
(12.3228 1.03696e-07 0)
(12.3228 1.29985e-07 0)
(12.3228 1.64358e-07 0)
(12.3228 2.01795e-07 0)
(12.3228 2.3033e-07 0)
(12.3228 1.88318e-07 0)
(12.3228 1.23822e-07 0)
(12.3162 8.4119e-09 0)
(12.3162 -8.67097e-09 0)
(12.3162 7.64407e-09 0)
(12.3162 4.64156e-09 0)
(12.3162 4.69862e-09 0)
(12.3162 1.7195e-08 0)
(12.3162 6.17592e-09 0)
(12.3162 2.94495e-08 0)
(12.3162 1.56589e-08 0)
(12.3162 4.23041e-08 0)
(12.3162 3.531e-08 0)
(12.3162 6.01838e-08 0)
(12.3162 6.67452e-08 0)
(12.3162 9.09735e-08 0)
(12.3162 1.14116e-07 0)
(12.3162 1.43922e-07 0)
(12.3162 1.77344e-07 0)
(12.3162 2.01228e-07 0)
(12.3162 1.65253e-07 0)
(12.3162 1.10988e-07 0)
(12.1829 1.6856e-08 0)
(12.1829 -1.62077e-10 0)
(12.1829 9.89187e-09 0)
(12.1829 6.79647e-09 0)
(12.1829 3.49472e-09 0)
(12.1829 1.68525e-08 0)
(12.1829 3.27958e-09 0)
(12.1829 2.68161e-08 0)
(12.1829 1.11164e-08 0)
(12.1829 3.68298e-08 0)
(12.1829 2.81341e-08 0)
(12.1829 5.0807e-08 0)
(12.1829 5.50499e-08 0)
(12.1829 7.5734e-08 0)
(12.1829 9.49259e-08 0)
(12.1829 1.19466e-07 0)
(12.1829 1.47585e-07 0)
(12.1829 1.66553e-07 0)
(12.1829 1.36816e-07 0)
(12.1829 9.32736e-08 0)
(11.923 2.01526e-08 0)
(11.923 3.6425e-09 0)
(11.923 9.4814e-09 0)
(11.923 7.08336e-09 0)
(11.923 1.85005e-09 0)
(11.923 1.51945e-08 0)
(11.923 5.52714e-10 0)
(11.923 2.29223e-08 0)
(11.923 6.58247e-09 0)
(11.923 3.00827e-08 0)
(11.923 2.03675e-08 0)
(11.923 4.00003e-08 0)
(11.923 4.19014e-08 0)
(11.923 5.85409e-08 0)
(11.923 7.31579e-08 0)
(11.923 9.19738e-08 0)
(11.923 1.13746e-07 0)
(11.923 1.27698e-07 0)
(11.923 1.04148e-07 0)
(11.923 7.12685e-08 0)
(11.5364 1.8043e-08 0)
(11.5364 3.48927e-09 0)
(11.5364 7.0144e-09 0)
(11.5364 5.82258e-09 0)
(11.5364 2.72835e-10 0)
(11.5364 1.22241e-08 0)
(11.5364 -1.38045e-09 0)
(11.5364 1.77829e-08 0)
(11.5364 2.82356e-09 0)
(11.5364 2.2338e-08 0)
(11.5364 1.29474e-08 0)
(11.5364 2.85057e-08 0)
(11.5364 2.8547e-08 0)
(11.5364 4.07824e-08 0)
(11.5364 5.06753e-08 0)
(11.5364 6.37796e-08 0)
(11.5364 7.88105e-08 0)
(11.5364 8.80995e-08 0)
(11.5364 7.06758e-08 0)
(11.5364 4.73623e-08 0)
(11.0232 1.15226e-08 0)
(11.0232 1.36144e-09 0)
(11.0232 3.70196e-09 0)
(11.0232 3.64783e-09 0)
(11.0232 -7.33859e-10 0)
(11.0232 8.11613e-09 0)
(11.0232 -2.11459e-09 0)
(11.0232 1.15168e-08 0)
(11.0232 3.12873e-10 0)
(11.0232 1.38524e-08 0)
(11.0232 6.49115e-09 0)
(11.0232 1.6864e-08 0)
(11.0232 1.5866e-08 0)
(11.0232 2.34383e-08 0)
(11.0232 2.88249e-08 0)
(11.0232 3.64057e-08 0)
(11.0232 4.48284e-08 0)
(11.0232 4.9976e-08 0)
(11.0232 3.88773e-08 0)
(11.0232 2.43891e-08 0)
(10.3833 3.69101e-09 0)
(10.3833 9.582e-11 0)
(10.3833 1.01718e-09 0)
(10.3833 1.20303e-09 0)
(10.3833 -4.57773e-10 0)
(10.3833 2.85912e-09 0)
(10.3833 -9.75772e-10 0)
(10.3833 4.01391e-09 0)
(10.3833 -1.83077e-10 0)
(10.3833 4.71297e-09 0)
(10.3833 1.89369e-09 0)
(10.3833 5.57547e-09 0)
(10.3833 5.0147e-09 0)
(10.3833 7.60751e-09 0)
(10.3833 9.27302e-09 0)
(10.3833 1.17545e-08 0)
(10.3833 1.44184e-08 0)
(10.3833 1.60592e-08 0)
(10.3833 1.21582e-08 0)
(10.3833 6.93416e-09 0)
)
;

boundaryField
{
    top
    {
        type            fixedValue;
        value           uniform (10 0 0);
    }
    bottom
    {
        type            fixedValue;
        value           uniform (0 0 0);
    }
    inlet
    {
        type            zeroGradient;
    }
    outlet
    {
        type            zeroGradient;
    }
    frontAndBack
    {
        type            empty;
    }
}


// ************************************************************************* //
