/*--------------------------------*- C++ -*----------------------------------*\
| =========                 |                                                 |
| \\      /  F ield         | OpenFOAM: The Open Source CFD Toolbox           |
|  \\    /   O peration     | Version:  v1706                                 |
|   \\  /    A nd           | Web:      www.OpenFOAM.com                      |
|    \\/     M anipulation  |                                                 |
\*---------------------------------------------------------------------------*/
FoamFile
{
    version     2.0;
    format      ascii;
    class       surfaceScalarField;
    location    "0.4";
    object      phi;
}
// * * * * * * * * * * * * * * * * * * * * * * * * * * * * * * * * * * * * * //

dimensions      [0 3 -1 0 0 0 0];
oriented        oriented;


internalField   nonuniform List<scalar> 
760
(
4.30797e-05
1.9725e-11
4.30797e-05
-2.42596e-12
4.30797e-05
-2.24213e-11
4.30796e-05
4.63014e-11
4.30797e-05
-2.79346e-11
4.30796e-05
1.42818e-11
4.30797e-05
-8.45219e-12
4.30797e-05
1.58892e-11
4.30797e-05
1.92972e-11
4.30797e-05
2.07525e-11
4.30797e-05
1.65446e-14
4.30797e-05
-1.10257e-11
4.30797e-05
-1.77308e-11
4.30797e-05
-1.34651e-11
4.30797e-05
-1.94555e-11
4.30797e-05
6.37258e-12
4.30797e-05
3.30945e-11
4.30797e-05
1.46591e-11
4.30796e-05
4.08179e-11
-3.39348e-11
0.000122933
6.03459e-11
0.000122933
-5.3301e-12
0.000122933
-4.79059e-11
0.000122933
1.36245e-10
0.000122933
-5.27913e-11
0.000122933
3.37164e-12
0.000122933
-6.48587e-12
0.000122933
2.3876e-11
0.000122933
5.31592e-11
0.000122933
4.06142e-11
0.000122933
6.56125e-12
0.000122933
-1.48917e-11
0.000122933
-5.26895e-11
0.000122933
-1.50767e-11
0.000122933
-6.1358e-11
0.000122933
2.16127e-11
0.000122933
8.11518e-11
0.000122933
4.74532e-11
0.000122933
1.18578e-10
-7.85756e-11
0.000196533
9.643e-11
0.000196533
-1.91428e-11
0.000196533
-6.6659e-11
0.000196533
2.35921e-10
0.000196533
-5.83418e-11
0.000196533
-2.04737e-11
0.000196533
2.07985e-12
0.000196533
3.15963e-11
0.000196533
8.89759e-11
0.000196533
6.07614e-11
0.000196533
1.70093e-11
0.000196533
-1.08125e-11
0.000196533
-8.66296e-11
0.000196533
-7.49062e-12
0.000196533
-1.11794e-10
0.000196533
3.55035e-11
0.000196533
1.28646e-10
0.000196533
8.94053e-11
0.000196533
2.10076e-10
-1.07911e-10
0.00026393
1.1156e-10
0.00026393
-4.915e-11
0.00026393
-7.36499e-11
0.00026393
3.35676e-10
0.00026393
-4.00012e-11
0.00026393
-3.81067e-11
0.00026393
1.23768e-11
0.00026393
3.8742e-11
0.00026393
1.20635e-10
0.00026393
8.01812e-11
0.00026393
3.14359e-11
0.00026393
-2.67351e-13
0.00026393
-1.12099e-10
0.00026393
6.99414e-12
0.00026393
-1.64901e-10
0.00026393
4.5413e-11
0.00026393
1.71562e-10
0.00026393
1.28373e-10
0.00026393
3.05104e-10
-1.1593e-10
0.000325172
9.77584e-11
0.000325173
-9.6759e-11
0.000325173
-6.76453e-11
0.000325172
4.27513e-10
0.000325172
2.60887e-12
0.000325172
-4.22102e-11
0.000325172
2.64211e-11
0.000325172
4.79523e-11
0.000325172
1.49004e-10
0.000325172
9.90242e-11
0.000325172
4.71885e-11
0.000325172
1.29234e-11
0.000325172
-1.31669e-10
0.000325172
2.6132e-11
0.000325172
-2.15619e-10
0.000325172
5.33981e-11
0.000325172
2.11138e-10
0.000325172
1.59035e-10
0.000325172
3.96957e-10
-9.92261e-11
0.000380303
5.20122e-11
0.000380303
-1.62282e-10
0.000380303
-5.13588e-11
0.000380303
5.02939e-10
0.000380303
6.65025e-11
0.000380303
-2.87499e-11
0.000380303
4.592e-11
0.000380303
5.94629e-11
0.000380303
1.7412e-10
0.000380303
1.16073e-10
0.000380303
6.30645e-11
0.000380303
2.69137e-11
0.000380303
-1.46297e-10
0.000380303
4.80356e-11
0.000380303
-2.60617e-10
0.000380303
6.0482e-11
0.000380303
2.47348e-10
0.000380303
1.77424e-10
0.000380303
4.77542e-10
-5.83289e-11
0.00042936
-2.29603e-11
0.00042936
-2.43026e-10
0.00042936
-3.01741e-11
0.00042936
5.53283e-10
0.000429359
1.44902e-10
0.000429359
2.48796e-12
0.000429359
7.16364e-11
0.000429359
7.34919e-11
0.000429359
1.96012e-10
0.000429359
1.30433e-10
0.000429359
7.79916e-11
0.000429359
4.02321e-11
0.000429359
-1.56274e-10
0.000429359
7.0323e-11
0.000429359
-2.97243e-10
0.000429359
6.69118e-11
0.000429359
2.79568e-10
0.000429359
1.82366e-10
0.000429359
5.39296e-10
2.56409e-12
0.000472373
-1.19148e-10
0.000472373
-3.32371e-10
0.000472373
-9.69845e-12
0.000472373
5.71445e-10
0.000472373
2.28448e-10
0.000472373
4.80935e-11
0.000472373
1.02923e-10
0.000472373
8.9577e-11
0.000472373
2.14424e-10
0.000472373
1.41305e-10
0.000472373
9.09494e-11
0.000472373
5.176e-11
0.000472373
-1.6147e-10
0.000472373
9.06999e-11
0.000472373
-3.23468e-10
0.000472373
7.25373e-11
0.000472373
3.06162e-10
0.000472373
1.75128e-10
0.000472373
5.76472e-10
7.64009e-11
0.000509369
-2.24566e-10
0.000509369
-4.20241e-10
0.000509369
6.18316e-12
0.000509369
5.53622e-10
0.000509369
3.06646e-10
0.000509369
1.01689e-10
0.000509369
1.37432e-10
0.000509369
1.06383e-10
0.000509369
2.28723e-10
0.000509369
1.47954e-10
0.000509369
1.00997e-10
0.000509369
6.06007e-11
0.000509369
-1.61602e-10
0.000509369
1.07195e-10
0.000509369
-3.37825e-10
0.000509369
7.71651e-11
0.000509369
3.24507e-10
0.000509369
1.58765e-10
0.000509369
5.86e-10
1.5444e-10
0.000540362
-3.25431e-10
0.000540362
-4.94846e-10
0.000540362
1.61528e-11
0.000540362
5.00451e-10
0.000540362
3.69534e-10
0.000540362
1.5506e-10
0.000540362
1.7137e-10
0.000540362
1.21853e-10
0.000540362
2.37939e-10
0.000540362
1.49796e-10
0.000540362
1.07297e-10
0.000540362
6.61101e-11
0.000540362
-1.56464e-10
0.000540362
1.18324e-10
0.000540362
-3.39442e-10
0.000540362
8.06061e-11
0.000540362
3.31488e-10
0.000540362
1.37209e-10
0.000540362
5.67829e-10
2.27637e-10
0.000565362
-4.08509e-10
0.000565362
-5.45056e-10
0.000565362
2.12518e-11
0.000565362
4.1736e-10
0.000565362
4.09265e-10
0.000565362
1.99587e-10
0.000565362
2.00112e-10
0.000565362
1.33503e-10
0.000565362
2.40911e-10
0.000565362
1.46443e-10
0.000565362
1.09205e-10
0.000565362
6.79814e-11
0.000565362
-1.46072e-10
0.000565362
1.23211e-10
0.000565362
-3.28136e-10
0.000565362
8.26152e-11
0.000565362
3.24269e-10
0.000565362
1.14353e-10
0.000565362
5.24636e-10
2.87845e-10
0.000584369
-4.63146e-10
0.000584369
-5.62704e-10
0.000584369
2.38042e-11
0.000584369
3.13932e-10
0.000584369
4.21267e-10
0.000584369
2.2775e-10
0.000584369
2.19061e-10
0.000584369
1.38895e-10
0.000584369
2.36527e-10
0.000584369
1.37823e-10
0.000584369
1.06383e-10
0.000584369
6.63274e-11
0.000584369
-1.30761e-10
0.000584369
1.21641e-10
0.000584369
-3.04507e-10
0.000584369
8.27565e-11
0.000584369
3.01179e-10
0.000584369
9.33276e-11
0.000584369
4.61126e-10
3.28725e-10
0.000597373
-4.82626e-10
0.000597373
-5.44229e-10
0.000597373
2.59447e-11
0.000597373
2.02427e-10
0.000597373
4.04771e-10
0.000597373
2.34452e-10
0.000597373
2.24567e-10
0.000597373
1.36185e-10
0.000597373
2.24031e-10
0.000597373
1.24293e-10
0.000597373
9.88948e-11
0.000597373
6.1701e-11
0.000597373
-1.11235e-10
0.000597373
1.14033e-10
0.000597373
-2.70011e-10
0.000597373
8.03073e-11
0.000597373
2.62507e-10
0.000597373
7.60619e-11
0.000597374
3.83214e-10
3.46305e-10
0.000604359
-4.64761e-10
0.000604359
-4.91286e-10
0.000604359
2.83858e-11
0.000604359
9.58182e-11
0.00060436
3.62648e-10
0.00060436
2.17989e-10
0.00060436
2.14741e-10
0.00060436
1.24648e-10
0.00060436
2.03306e-10
0.00060436
1.06756e-10
0.00060436
8.72774e-11
0.00060436
5.50086e-11
0.00060436
-8.85961e-11
0.00060436
1.01308e-10
0.00060436
-2.27001e-10
0.00060436
7.4316e-11
0.00060436
2.11011e-10
0.00060436
6.31168e-11
0.00060436
2.97333e-10
3.39232e-10
0.000605303
-4.11916e-10
0.000605303
-4.10312e-10
0.000605303
2.99841e-11
0.000605303
5.91569e-12
0.000605303
3.00752e-10
0.000605303
1.8061e-10
0.000605303
1.89987e-10
0.000605303
1.04995e-10
0.000605303
1.75059e-10
0.000605303
8.66487e-11
0.000605303
7.25115e-11
0.000605303
4.73052e-11
0.000605303
-6.43669e-11
0.000605303
8.47117e-11
0.000605303
-1.78682e-10
0.000605303
6.39051e-11
0.000605303
1.52007e-10
0.000605303
5.37562e-11
0.000605303
2.10071e-10
3.08769e-10
0.000600172
-3.30693e-10
0.000600172
-3.11285e-10
0.000600172
2.84901e-11
0.000600172
-5.80662e-11
0.000600172
2.26841e-10
0.000600172
1.28557e-10
0.000600173
1.53106e-10
0.000600173
7.95764e-11
0.000600173
1.40837e-10
0.000600173
6.60167e-11
0.000600173
5.59143e-11
0.000600173
3.93928e-11
0.000600173
-4.05608e-11
0.000600173
6.53649e-11
0.000600173
-1.28942e-10
0.000600173
4.88177e-11
0.000600173
9.31411e-11
0.000600173
4.63474e-11
0.000600173
1.28202e-10
2.58513e-10
0.00058893
-2.31694e-10
0.00058893
-2.06038e-10
0.00058893
2.23984e-11
0.00058893
-9.00306e-11
0.00058893
1.4975e-10
0.00058893
7.18124e-11
0.00058893
1.08768e-10
0.00058893
5.2219e-11
0.00058893
1.02849e-10
0.00058893
4.72859e-11
0.00058893
3.88901e-11
0.00058893
3.12046e-11
0.00058893
-1.95463e-11
0.00058893
4.393e-11
0.00058893
-8.17823e-11
0.00058893
3.01595e-11
0.00058893
4.36266e-11
0.00058893
3.89448e-11
0.00058893
5.9128e-11
1.93952e-10
0.000571533
-1.29438e-10
0.000571533
-1.06472e-10
0.000571533
1.41021e-11
0.000571533
-8.49201e-11
0.000571533
8.03035e-11
0.000571533
2.40494e-11
0.000571533
6.33541e-11
0.000571533
2.60098e-11
0.000571533
6.25664e-11
0.000571533
3.12254e-11
0.000571533
2.09132e-11
0.000571533
2.15927e-11
0.000571533
-4.86006e-12
0.000571533
2.19253e-11
0.000571533
-4.11129e-11
0.000571533
1.187e-11
0.000571533
1.2987e-11
0.000571533
3.00095e-11
0.000571533
1.10209e-11
1.20927e-10
0.000547933
-4.3637e-11
0.000547933
-2.79585e-11
0.000547933
5.53901e-12
0.000547933
-4.44252e-11
0.000547933
2.76795e-11
0.000547933
1.18931e-12
0.000547933
2.37304e-11
0.000547933
6.84456e-12
0.000547933
2.2303e-11
0.000547933
1.87968e-11
0.000547933
2.01561e-12
0.000547933
8.96254e-12
0.000547933
3.20629e-12
0.000547933
1.04617e-12
0.000547933
-8.55974e-12
0.000547933
-2.72839e-12
0.000547933
6.88902e-12
0.000547933
1.59356e-11
0.000547933
-8.11072e-12
4.64375e-11
0.00051808
0.00051808
0.00051808
0.00051808
0.00051808
0.00051808
0.00051808
0.00051808
0.00051808
0.00051808
0.00051808
0.00051808
0.00051808
0.00051808
0.00051808
0.00051808
0.00051808
0.00051808
0.00051808
)
;

boundaryField
{
    top
    {
        type            calculated;
        value           uniform 0;
    }
    bottom
    {
        type            calculated;
        value           uniform 0;
    }
    inlet
    {
        type            calculated;
        value           nonuniform List<scalar> 
20
(
-4.30797e-05
-0.000122933
-0.000196533
-0.00026393
-0.000325172
-0.000380303
-0.000429359
-0.000472373
-0.000509369
-0.000540362
-0.000565362
-0.000584369
-0.000597373
-0.000604359
-0.000605303
-0.000600172
-0.00058893
-0.000571533
-0.000547933
-0.00051808
)
;
    }
    outlet
    {
        type            calculated;
        value           nonuniform List<scalar> 
20
(
4.30797e-05
0.000122933
0.000196533
0.00026393
0.000325172
0.000380303
0.000429359
0.000472373
0.000509369
0.000540362
0.000565362
0.000584369
0.000597373
0.00060436
0.000605303
0.000600173
0.00058893
0.000571533
0.000547933
0.00051808
)
;
    }
    frontAndBack
    {
        type            empty;
        value           nonuniform 0();
    }
}


// ************************************************************************* //
