/*--------------------------------*- C++ -*----------------------------------*\
| =========                 |                                                 |
| \\      /  F ield         | OpenFOAM: The Open Source CFD Toolbox           |
|  \\    /   O peration     | Version:  v1706                                 |
|   \\  /    A nd           | Web:      www.OpenFOAM.com                      |
|    \\/     M anipulation  |                                                 |
\*---------------------------------------------------------------------------*/
FoamFile
{
    version     2.0;
    format      ascii;
    class       volVectorField;
    location    "0.4";
    object      U;
}
// * * * * * * * * * * * * * * * * * * * * * * * * * * * * * * * * * * * * * //

dimensions      [0 1 -1 0 0 0 0];


internalField   nonuniform List<vector> 
400
(
(0.861594 1.0658e-08 0)
(0.861593 7.83432e-10 0)
(0.861594 -1.08404e-08 0)
(0.861593 2.20544e-08 0)
(0.861593 -1.4894e-08 0)
(0.861593 6.47623e-09 0)
(0.861593 -3.83978e-09 0)
(0.861593 9.53851e-09 0)
(0.861593 8.86946e-09 0)
(0.861593 1.0607e-08 0)
(0.861593 -2.42442e-09 0)
(0.861593 -6.93279e-09 0)
(0.861594 -1.04339e-08 0)
(0.861593 -8.11883e-09 0)
(0.861594 -6.68043e-09 0)
(0.861594 3.6567e-09 0)
(0.861593 1.80609e-08 0)
(0.861593 7.86196e-09 0)
(0.861593 1.94662e-08 0)
(0.861593 -1.87704e-08 0)
(2.45866 3.88418e-08 0)
(2.45866 -2.52808e-09 0)
(2.45866 -3.54386e-08 0)
(2.45866 8.6033e-08 0)
(2.45866 -4.34903e-08 0)
(2.45866 1.10959e-08 0)
(2.45866 -8.24949e-09 0)
(2.45866 1.76299e-08 0)
(2.45866 3.66244e-08 0)
(2.45866 2.96901e-08 0)
(2.45866 4.70985e-09 0)
(2.45866 -1.31212e-08 0)
(2.45866 -3.42353e-08 0)
(2.45866 -1.52301e-08 0)
(2.45866 -3.9632e-08 0)
(2.45866 1.39714e-08 0)
(2.45866 5.4668e-08 0)
(2.45866 2.83784e-08 0)
(2.45866 7.47205e-08 0)
(2.45866 -5.72453e-08 0)
(3.93066 8.09244e-08 0)
(3.93066 -8.83643e-09 0)
(3.93066 -5.94248e-08 0)
(3.93066 1.82167e-07 0)
(3.93065 -6.16088e-08 0)
(3.93065 -9.24756e-09 0)
(3.93066 -2.78277e-09 0)
(3.93065 3.03618e-08 0)
(3.93066 7.21634e-08 0)
(3.93065 5.25466e-08 0)
(3.93066 1.01422e-08 0)
(3.93065 -1.52724e-08 0)
(3.93066 -7.16235e-08 0)
(3.93065 -1.47181e-08 0)
(3.93066 -8.37946e-08 0)
(3.93065 2.9105e-08 0)
(3.93066 1.06085e-07 0)
(3.93065 6.92243e-08 0)
(3.93065 1.61765e-07 0)
(3.93065 -9.69772e-08 0)
(5.2786 1.09776e-07 0)
(5.2786 -2.95592e-08 0)
(5.2786 -7.21402e-08 0)
(5.2786 2.86758e-07 0)
(5.2786 -5.5242e-08 0)
(5.2786 -3.17384e-08 0)
(5.2786 5.65481e-09 0)
(5.2786 3.34679e-08 0)
(5.2786 1.0441e-07 0)
(5.2786 7.00462e-08 0)
(5.2786 2.44921e-08 0)
(5.2786 -5.56033e-09 0)
(5.2786 -9.99179e-08 0)
(5.2786 -1.54652e-09 0)
(5.2786 -1.38231e-07 0)
(5.2786 4.08681e-08 0)
(5.2786 1.50199e-07 0)
(5.2786 1.09507e-07 0)
(5.2786 2.56808e-07 0)
(5.2786 -1.18149e-07 0)
(6.50345 1.12331e-07 0)
(6.50345 -6.7913e-08 0)
(6.50345 -7.2845e-08 0)
(6.50345 3.85022e-07 0)
(6.50345 -2.47171e-08 0)
(6.50344 -4.41829e-08 0)
(6.50345 1.74112e-08 0)
(6.50344 4.22937e-08 0)
(6.50345 1.34581e-07 0)
(6.50344 8.98368e-08 0)
(6.50345 3.94161e-08 0)
(6.50344 6.41489e-09 0)
(6.50345 -1.22392e-07 0)
(6.50344 1.54599e-08 0)
(6.50345 -1.91059e-07 0)
(6.50345 4.95868e-08 0)
(6.50345 1.9191e-07 0)
(6.50344 1.45902e-07 0)
(6.50345 3.52762e-07 0)
(6.50344 -1.14054e-07 0)
(7.60606 8.27163e-08 0)
(7.60606 -1.24634e-07 0)
(7.60606 -6.06691e-08 0)
(7.60606 4.71088e-07 0)
(7.60606 3.03315e-08 0)
(7.60606 -3.9939e-08 0)
(7.60606 3.39229e-08 0)
(7.60605 5.24377e-08 0)
(7.60606 1.61019e-07 0)
(7.60605 1.0769e-07 0)
(7.60606 5.52203e-08 0)
(7.60605 2.04154e-08 0)
(7.60606 -1.39246e-07 0)
(7.60605 3.6772e-08 0)
(7.60606 -2.39592e-07 0)
(7.60606 5.69268e-08 0)
(7.60606 2.29788e-07 0)
(7.60605 1.70955e-07 0)
(7.60606 4.41015e-07 0)
(7.60605 -8.44376e-08 0)
(8.58719 2.10955e-08 0)
(8.58719 -1.98967e-07 0)
(8.58719 -4.07375e-08 0)
(8.58719 5.36077e-07 0)
(8.58719 1.03971e-07 0)
(8.58719 -1.70109e-08 0)
(8.58719 5.65747e-08 0)
(8.58718 6.52675e-08 0)
(8.58719 1.84386e-07 0)
(8.58718 1.23345e-07 0)
(8.58719 7.05922e-08 0)
(8.58718 3.42746e-08 0)
(8.58719 -1.51487e-07 0)
(8.58718 5.95956e-08 0)
(8.58719 -2.80836e-07 0)
(8.58718 6.35967e-08 0)
(8.58719 2.64248e-07 0)
(8.58718 1.82484e-07 0)
(8.58719 5.13855e-07 0)
(8.58718 -3.20311e-08 0)
(9.44747 -6.69777e-08 0)
(9.44747 -2.86325e-07 0)
(9.44747 -1.91055e-08 0)
(9.44747 5.71661e-07 0)
(9.44747 1.87752e-07 0)
(9.44746 2.28546e-08 0)
(9.44747 8.56347e-08 0)
(9.44746 8.07375e-08 0)
(9.44747 2.0464e-07 0)
(9.44746 1.35991e-07 0)
(9.44747 8.44971e-08 0)
(9.44746 4.67955e-08 0)
(9.44747 -1.59161e-07 0)
(9.44746 8.15519e-08 0)
(9.44747 -3.12576e-07 0)
(9.44746 6.9545e-08 0)
(9.44747 2.94253e-07 0)
(9.44746 1.80701e-07 0)
(9.44747 5.64405e-07 0)
(9.44746 3.7356e-08 0)
(10.1874 -1.70998e-07 0)
(10.1874 -3.77962e-07 0)
(10.1874 -6.87087e-10 0)
(10.1874 5.72096e-07 0)
(10.1874 2.7134e-07 0)
(10.1874 7.44919e-08 0)
(10.1874 1.19493e-07 0)
(10.1874 9.77979e-08 0)
(10.1874 2.21268e-07 0)
(10.1874 1.44781e-07 0)
(10.1874 9.60201e-08 0)
(10.1874 5.70024e-08 0)
(10.1874 -1.61971e-07 0)
(10.1874 1.00474e-07 0)
(10.1874 -3.3306e-07 0)
(10.1874 7.463e-08 0)
(10.1874 3.17537e-07 0)
(10.1874 1.67983e-07 0)
(10.1874 5.88019e-07 0)
(10.1874 1.1548e-07 0)
(10.8072 -2.77528e-07 0)
(10.8072 -4.62358e-07 0)
(10.8072 1.19029e-08 0)
(10.8072 5.35619e-07 0)
(10.8073 3.44091e-07 0)
(10.8072 1.30253e-07 0)
(10.8073 1.54963e-07 0)
(10.8072 1.14692e-07 0)
(10.8072 2.3342e-07 0)
(10.8072 1.49112e-07 0)
(10.8073 1.04254e-07 0)
(10.8072 6.41405e-08 0)
(10.8073 -1.59605e-07 0)
(10.8072 1.14594e-07 0)
(10.8073 -3.41107e-07 0)
(10.8072 7.86452e-08 0)
(10.8072 3.31061e-07 0)
(10.8072 1.48058e-07 0)
(10.8072 5.83177e-07 0)
(10.8072 1.93161e-07 0)
(11.3072 -3.72514e-07 0)
(11.3072 -5.27414e-07 0)
(11.3072 1.8809e-08 0)
(11.3072 4.65365e-07 0)
(11.3073 3.96775e-07 0)
(11.3072 1.81332e-07 0)
(11.3073 1.87632e-07 0)
(11.3072 1.29027e-07 0)
(11.3073 2.39954e-07 0)
(11.3072 1.48506e-07 0)
(11.3073 1.08441e-07 0)
(11.3072 6.77305e-08 0)
(11.3073 -1.51917e-07 0)
(11.3072 1.22718e-07 0)
(11.3073 -3.36184e-07 0)
(11.3072 8.14144e-08 0)
(11.3073 3.31621e-07 0)
(11.3072 1.25031e-07 0)
(11.3073 5.51361e-07 0)
(11.3072 2.61557e-07 0)
(11.6874 -4.43596e-07 0)
(11.6874 -5.62956e-07 0)
(11.6874 2.20672e-08 0)
(11.6874 3.69166e-07 0)
(11.6874 4.23024e-07 0)
(11.6874 2.1929e-07 0)
(11.6874 2.12644e-07 0)
(11.6874 1.38196e-07 0)
(11.6874 2.39643e-07 0)
(11.6874 1.42607e-07 0)
(11.6874 1.08055e-07 0)
(11.6874 6.76708e-08 0)
(11.6874 -1.39051e-07 0)
(11.6874 1.24302e-07 0)
(11.6874 -3.1848e-07 0)
(11.6874 8.26396e-08 0)
(11.6874 3.16736e-07 0)
(11.6874 1.0254e-07 0)
(11.6874 4.965e-07 0)
(11.6874 3.13267e-07 0)
(11.9475 -4.81849e-07 0)
(11.9475 -5.62837e-07 0)
(11.9475 2.42261e-08 0)
(11.9475 2.58423e-07 0)
(11.9475 4.20189e-07 0)
(11.9475 2.37539e-07 0)
(11.9475 2.25644e-07 0)
(11.9475 1.39917e-07 0)
(11.9475 2.3146e-07 0)
(11.9475 1.31478e-07 0)
(11.9475 1.02921e-07 0)
(11.9475 6.42975e-08 0)
(11.9475 -1.21508e-07 0)
(11.9475 1.19465e-07 0)
(11.9475 -2.89001e-07 0)
(11.9475 8.17575e-08 0)
(11.9475 2.85538e-07 0)
(11.9475 8.31609e-08 0)
(11.9475 4.24135e-07 0)
(11.9475 3.43063e-07 0)
(12.0872 -4.82757e-07 0)
(12.0872 -5.26098e-07 0)
(12.0872 2.68794e-08 0)
(12.0872 1.46273e-07 0)
(12.0872 3.89545e-07 0)
(12.0872 2.32539e-07 0)
(12.0872 2.23695e-07 0)
(12.0872 1.32768e-07 0)
(12.0872 2.14885e-07 0)
(12.0872 1.15719e-07 0)
(12.0872 9.33038e-08 0)
(12.0872 5.83712e-08 0)
(12.0872 -1.00181e-07 0)
(12.0872 1.08955e-07 0)
(12.0872 -2.49642e-07 0)
(12.0872 7.78969e-08 0)
(12.0872 2.39447e-07 0)
(12.0872 6.81205e-08 0)
(12.0872 3.406e-07 0)
(12.0872 3.48287e-07 0)
(12.1061 -4.4642e-07 0)
(12.1061 -4.57054e-07 0)
(12.1061 2.9736e-08 0)
(12.1061 4.54315e-08 0)
(12.1061 3.35629e-07 0)
(12.1061 2.04459e-07 0)
(12.1061 2.05979e-07 0)
(12.1061 1.16781e-07 0)
(12.1061 1.90219e-07 0)
(12.1061 9.66148e-08 0)
(12.1061 8.00073e-08 0)
(12.1061 5.08982e-08 0)
(12.1061 -7.63887e-08 0)
(12.1061 9.38369e-08 0)
(12.1061 -2.03196e-07 0)
(12.1061 7.00215e-08 0)
(12.1061 1.82571e-07 0)
(12.1061 5.73396e-08 0)
(12.1061 2.52425e-07 0)
(12.1061 3.28965e-07 0)
(12.0034 -3.77266e-07 0)
(12.0034 -3.64174e-07 0)
(12.0034 3.07233e-08 0)
(12.0034 -3.33314e-08 0)
(12.0034 2.65602e-07 0)
(12.0034 1.57565e-07 0)
(12.0035 1.74086e-07 0)
(12.0034 9.33728e-08 0)
(12.0035 1.58588e-07 0)
(12.0034 7.57971e-08 0)
(12.0035 6.42073e-08 0)
(12.0034 4.29305e-08 0)
(12.0035 -5.18491e-08 0)
(12.0034 7.55143e-08 0)
(12.0035 -1.53254e-07 0)
(12.0034 5.73721e-08 0)
(12.0035 1.21398e-07 0)
(12.0034 4.95106e-08 0)
(12.0035 1.66186e-07 0)
(12.0035 2.87655e-07 0)
(11.7786 -2.83528e-07 0)
(11.7786 -2.58411e-07 0)
(11.7786 2.73972e-08 0)
(11.7786 -8.17188e-08 0)
(11.7786 1.88026e-07 0)
(11.7786 1.00145e-07 0)
(11.7786 1.32065e-07 0)
(11.7786 6.53181e-08 0)
(11.7786 1.21685e-07 0)
(11.7786 5.52923e-08 0)
(11.7786 4.69168e-08 0)
(11.7786 3.51926e-08 0)
(11.7786 -2.92248e-08 0)
(11.7786 5.5087e-08 0)
(11.7786 -1.0416e-07 0)
(11.7786 4.02779e-08 0)
(11.7786 6.47295e-08 0)
(11.7786 4.2733e-08 0)
(11.7786 8.88349e-08 0)
(11.7786 2.28454e-07 0)
(11.4307 -1.78223e-07 0)
(11.4307 -1.52238e-07 0)
(11.4307 1.82917e-08 0)
(11.4307 -9.63927e-08 0)
(11.4307 1.10632e-07 0)
(11.4307 4.38599e-08 0)
(11.4307 8.36981e-08 0)
(11.4307 3.94042e-08 0)
(11.4307 8.29878e-08 0)
(11.4307 3.99385e-08 0)
(11.4307 3.11437e-08 0)
(11.4307 2.63469e-08 0)
(11.4307 -9.75714e-09 0)
(11.4307 3.06377e-08 0)
(11.4307 -5.85677e-08 0)
(11.4307 1.98674e-08 0)
(11.4307 2.31244e-08 0)
(11.4307 3.52483e-08 0)
(11.4307 2.97608e-08 0)
(11.4307 1.57687e-07 0)
(10.9587 -8.10645e-08 0)
(10.9587 -5.94207e-08 0)
(10.9587 1.13905e-08 0)
(10.9587 -6.8124e-08 0)
(10.9587 4.99559e-08 0)
(10.9587 7.08769e-09 0)
(10.9587 4.21841e-08 0)
(10.9587 1.25087e-08 0)
(10.9587 4.23365e-08 0)
(10.9587 2.45643e-08 0)
(10.9587 1.01637e-08 0)
(10.9587 1.59522e-08 0)
(10.9587 -1.30304e-09 0)
(10.9587 1.08936e-08 0)
(10.9587 -2.39352e-08 0)
(10.9587 4.71422e-09 0)
(10.9587 6.33027e-09 0)
(10.9587 2.49448e-08 0)
(10.9587 -3.73501e-09 0)
(10.9587 8.12866e-08 0)
(10.3616 -2.03187e-08 0)
(10.3616 -1.2817e-08 0)
(10.3616 1.28706e-09 0)
(10.3616 -2.63064e-08 0)
(10.3616 1.22599e-08 0)
(10.3616 -1.52804e-09 0)
(10.3616 9.14973e-09 0)
(10.3616 4.45442e-09 0)
(10.3616 1.00904e-08 0)
(10.3616 9.1162e-09 0)
(10.3616 3.13236e-09 0)
(10.3616 5.09465e-09 0)
(10.3616 4.08412e-09 0)
(10.3616 -1.28315e-09 0)
(10.3616 -2.66599e-09 0)
(10.3616 -3.11592e-09 0)
(10.3616 -4.66071e-10 0)
(10.3616 7.63221e-09 0)
(10.3616 -5.73296e-09 0)
(10.3616 2.31565e-08 0)
)
;

boundaryField
{
    top
    {
        type            fixedValue;
        value           uniform (10 0 0);
    }
    bottom
    {
        type            fixedValue;
        value           uniform (0 0 0);
    }
    inlet
    {
        type            zeroGradient;
    }
    outlet
    {
        type            zeroGradient;
    }
    frontAndBack
    {
        type            empty;
    }
}


// ************************************************************************* //
