/*--------------------------------*- C++ -*----------------------------------*\
| =========                 |                                                 |
| \\      /  F ield         | OpenFOAM: The Open Source CFD Toolbox           |
|  \\    /   O peration     | Version:  v1706                                 |
|   \\  /    A nd           | Web:      www.OpenFOAM.com                      |
|    \\/     M anipulation  |                                                 |
\*---------------------------------------------------------------------------*/
FoamFile
{
    version     2.0;
    format      ascii;
    class       surfaceScalarField;
    location    "1.1";
    object      phi;
}
// * * * * * * * * * * * * * * * * * * * * * * * * * * * * * * * * * * * * * //

dimensions      [0 3 -1 0 0 0 0];
oriented        oriented;


internalField   nonuniform List<scalar> 
760
(
4.41577e-05
-6.93556e-11
4.41578e-05
-4.25547e-11
4.41578e-05
-1.97796e-11
4.41578e-05
-3.44319e-13
4.41578e-05
-9.78844e-12
4.41578e-05
9.01752e-12
4.41578e-05
-4.12135e-12
4.41578e-05
6.86913e-12
4.41578e-05
2.66064e-13
4.41578e-05
-1.31047e-13
4.41578e-05
1.92542e-12
4.41578e-05
-8.32782e-12
4.41578e-05
6.0045e-13
4.41578e-05
-1.46075e-11
4.41578e-05
-4.47332e-12
4.41578e-05
-1.71941e-11
4.41578e-05
-9.9528e-12
4.41578e-05
-1.77266e-11
4.41579e-05
-2.58199e-11
-5.94804e-11
0.000126141
-2.05629e-10
0.000126141
-1.79546e-10
0.000126141
-7.41999e-11
0.000126141
-2.01954e-11
0.000126141
-2.63189e-11
0.000126141
1.12778e-11
0.000126141
-8.26895e-12
0.000126141
1.14677e-11
0.000126141
4.48918e-13
0.000126141
-1.01611e-12
0.000126141
6.91044e-13
0.000126141
-1.77112e-11
0.000126141
-5.75389e-12
0.000126141
-3.13199e-11
0.000126141
-1.82627e-11
0.000126141
-3.79241e-11
0.000126141
-3.20618e-11
0.000126141
-3.3122e-11
0.000126141
-8.69718e-11
-1.70108e-10
0.000201791
-3.59633e-10
0.000201791
-3.65916e-10
0.000201791
-1.52821e-10
0.000201792
-5.46367e-11
0.000201792
-4.74434e-11
0.000201792
6.4158e-12
0.000201792
-1.18737e-11
0.000201792
1.2549e-11
0.000201792
1.02442e-12
0.000201792
-3.43861e-12
0.000201792
-2.72137e-12
0.000201792
-2.78087e-11
0.000201792
-1.72464e-11
0.000201792
-4.8802e-11
0.000201792
-3.86835e-11
0.000201792
-6.00016e-11
0.000201792
-6.29629e-11
0.000201792
-4.49629e-11
0.000201792
-1.6697e-10
-2.94381e-10
0.00027111
-5.03082e-10
0.00027111
-5.61175e-10
0.00027111
-2.41599e-10
0.00027111
-9.71157e-11
0.00027111
-7.01845e-11
0.00027111
-3.4179e-12
0.00027111
-1.47006e-11
0.00027111
1.07775e-11
0.00027111
1.63817e-12
0.00027111
-7.26522e-12
0.00027111
-8.16872e-12
0.00027111
-3.84844e-11
0.00027111
-3.29348e-11
0.00027111
-6.66734e-11
0.00027111
-6.43394e-11
0.00027111
-8.29388e-11
0.00027111
-9.99628e-11
0.00027111
-5.58275e-11
0.00027111
-2.5002e-10
-4.14037e-10
0.000334097
-6.14781e-10
0.000334097
-7.30129e-10
0.000334097
-3.25759e-10
0.000334097
-1.40256e-10
0.000334097
-9.22431e-11
0.000334097
-1.57788e-11
0.000334097
-1.68445e-11
0.000334097
7.44002e-12
0.000334097
2.82572e-12
0.000334097
-1.11395e-11
0.000334097
-1.33329e-11
0.000334097
-4.76179e-11
0.000334097
-4.85854e-11
0.000334097
-8.18651e-11
0.000334097
-8.9334e-11
0.000334097
-1.02992e-10
0.000334097
-1.3539e-10
0.000334097
-6.45317e-11
0.000334097
-3.20602e-10
-5.10578e-10
0.000390752
-6.81632e-10
0.000390752
-8.48519e-10
0.000390752
-3.91545e-10
0.000390752
-1.7649e-10
0.000390752
-1.10131e-10
0.000390752
-2.79582e-11
0.000390752
-1.77112e-11
0.000390752
3.48551e-12
0.000390752
4.57849e-12
0.000390752
-1.48226e-11
0.000390752
-1.78721e-11
0.000390752
-5.51406e-11
0.000390752
-6.31434e-11
0.000390752
-9.43147e-11
0.000390752
-1.12123e-10
0.000390752
-1.20098e-10
0.000390752
-1.66575e-10
0.000390752
-7.34642e-11
0.000390752
-3.72094e-10
-5.73993e-10
0.000441076
-6.97882e-10
0.000441076
-9.0208e-10
0.000441076
-4.28424e-10
0.000441076
-1.99578e-10
0.000441076
-1.20827e-10
0.000441076
-3.7745e-11
0.000441076
-1.67716e-11
0.000441076
-3.76421e-13
0.000441076
6.8823e-12
0.000441076
-1.81283e-11
0.000441076
-2.14932e-11
0.000441076
-6.09082e-11
0.000441076
-7.56769e-11
0.000441076
-1.03745e-10
0.000441076
-1.31208e-10
0.000441076
-1.34071e-10
0.000441076
-1.91011e-10
0.000441076
-8.38129e-11
0.000441076
-4.01395e-10
-5.98728e-10
0.000485069
-6.64708e-10
0.000485069
-8.87177e-10
0.000485069
-4.3067e-10
0.000485069
-2.05499e-10
0.000485069
-1.22175e-10
0.000485069
-4.35295e-11
0.000485069
-1.36288e-11
0.000485069
-3.66672e-12
0.000485069
9.61794e-12
0.000485069
-2.10229e-11
0.000485069
-2.41906e-11
0.000485069
-6.50058e-11
0.000485069
-8.57524e-11
0.000485069
-1.10273e-10
0.000485069
-1.45802e-10
0.000485069
-1.45021e-10
0.000485069
-2.0739e-10
0.000485069
-9.60983e-11
0.000485069
-4.09005e-10
-5.84567e-10
0.000522731
-5.88496e-10
0.000522731
-8.09225e-10
0.000522731
-3.98152e-10
0.000522731
-1.93119e-10
0.000522731
-1.13457e-10
0.000522731
-4.45213e-11
0.000522731
-8.23386e-12
0.000522731
-6.13905e-12
0.000522731
1.25739e-11
0.000522731
-2.35319e-11
0.000522731
-2.60452e-11
0.000522731
-6.75784e-11
0.000522731
-9.31192e-11
0.000522731
-1.14055e-10
0.000522731
-1.55478e-10
0.000522731
-1.52926e-10
0.000522731
-2.15271e-10
0.000522731
-1.09819e-10
0.000522731
-3.97413e-10
-5.35467e-10
0.000554062
-4.79634e-10
0.000554062
-6.81038e-10
0.000554062
-3.3607e-10
0.000554062
-1.64421e-10
0.000554062
-9.56207e-11
0.000554062
-4.08729e-11
0.000554062
-9.68055e-13
0.000554062
-7.79215e-12
0.000554062
1.54618e-11
0.000554062
-2.56971e-11
0.000554062
-2.71566e-11
0.000554062
-6.87489e-11
0.000554062
-9.76212e-11
0.000554062
-1.15187e-10
0.000554062
-1.60074e-10
0.000554062
-1.57633e-10
0.000554062
-2.14933e-10
0.000554062
-1.2358e-10
0.000554062
-3.70228e-10
-4.58618e-10
0.000579062
-3.5095e-10
0.000579062
-5.20431e-10
0.000579062
-2.5391e-10
0.000579062
-1.24105e-10
0.000579062
-7.11683e-11
0.000579062
-3.36113e-11
0.000579062
7.36579e-12
0.000579062
-8.83582e-12
0.000579062
1.7934e-11
0.000579062
-2.75656e-11
0.000579062
-2.76132e-11
0.000579062
-6.86094e-11
0.000579062
-9.91789e-11
0.000579062
-1.13705e-10
0.000579062
-1.59668e-10
0.000579062
-1.58605e-10
0.000579062
-2.07321e-10
0.000579062
-1.35417e-10
0.000579062
-3.31474e-10
-3.63327e-10
0.000597731
-2.1634e-10
0.000597731
-3.47793e-10
0.000597731
-1.63802e-10
0.000597731
-7.86938e-11
0.000597731
-4.37287e-11
0.000597731
-2.44097e-11
0.000597731
1.56564e-11
0.000597731
-9.62327e-12
0.000597731
1.96294e-11
0.000597731
-2.91621e-11
0.000597731
-2.74732e-11
0.000597731
-6.7204e-11
0.000597731
-9.77742e-11
0.000597731
-1.09586e-10
0.000597731
-1.54532e-10
0.000597731
-1.55311e-10
0.000597731
-1.93683e-10
0.000597731
-1.43143e-10
0.000597731
-2.85212e-10
-2.59958e-10
0.00061007
-8.97655e-11
0.000610069
-1.83766e-10
0.000610069
-7.8442e-11
0.000610069
-3.5319e-11
0.000610069
-1.73624e-11
0.000610069
-1.52236e-11
0.000610069
2.26799e-11
0.000610069
-1.0541e-11
0.000610069
2.02383e-11
0.000610069
-3.04498e-11
0.000610069
-2.67452e-11
0.000610069
-6.45061e-11
0.000610069
-9.34382e-11
0.000610069
-1.0277e-10
0.000610069
-1.45055e-10
0.000610069
-1.47227e-10
0.000610069
-1.75464e-10
0.000610069
-1.4472e-10
0.000610069
-2.35361e-10
-1.58948e-10
0.000616077
1.63267e-11
0.000616077
-4.66148e-11
0.000616076
-9.11888e-12
0.000616076
-3.13245e-13
0.000616076
4.20416e-12
0.000616076
-7.84505e-12
0.000616076
2.7327e-11
0.000616076
-1.18576e-11
0.000616076
1.95767e-11
0.000616076
-3.12716e-11
0.000616076
-2.53595e-11
0.000616076
-6.03822e-11
0.000616076
-8.62053e-11
0.000616076
-9.31724e-11
0.000616076
-1.31615e-10
0.000616076
-1.33984e-10
0.000616076
-1.53935e-10
0.000616076
-1.38499e-10
0.000616076
-1.8547e-10
-6.97959e-11
0.000615753
9.13796e-11
0.000615752
4.95779e-11
0.000615752
3.64405e-11
0.000615752
2.19921e-11
0.000615752
1.8355e-11
0.000615752
-3.48731e-12
0.000615752
2.8841e-11
0.000615752
-1.35999e-11
0.000615752
1.76417e-11
0.000615752
-3.13284e-11
0.000615752
-2.31846e-11
0.000615752
-5.46311e-11
0.000615752
-7.6152e-11
0.000615752
-8.07727e-11
0.000615752
-1.14581e-10
0.000615752
-1.15584e-10
0.000615752
-1.30098e-10
0.000615752
-1.23682e-10
0.000615752
-1.3882e-10
-3.41217e-13
0.000609097
1.29293e-10
0.000609097
9.7993e-11
0.000609097
5.53778e-11
0.000609097
3.03295e-11
0.000609097
2.41229e-11
0.000609097
-2.35884e-12
0.000609097
2.69838e-11
0.000609097
-1.53583e-11
0.000609097
1.45944e-11
0.000609097
-3.01548e-11
0.000609097
-2.01481e-11
0.000609097
-4.71085e-11
0.000609097
-6.35494e-11
0.000609097
-6.58873e-11
0.000609097
-9.44663e-11
0.000609097
-9.28144e-11
0.000609097
-1.04746e-10
0.000609097
-1.00772e-10
0.000609097
-9.79421e-11
4.41942e-11
0.00059611
1.27618e-10
0.00059611
9.94001e-11
0.00059611
5.05465e-11
0.00059611
2.62992e-11
0.00059611
2.20214e-11
0.00059611
-3.84686e-12
0.00059611
2.20205e-11
0.00059611
-1.63634e-11
0.00059611
1.1013e-11
0.00059611
-2.69508e-11
0.00059611
-1.56895e-11
0.00059611
-3.71899e-11
0.00059611
-4.80912e-11
0.00059611
-4.82586e-11
0.00059611
-7.09872e-11
0.00059611
-6.60917e-11
0.00059611
-7.73639e-11
0.00059611
-7.10972e-11
0.00059611
-6.4391e-11
6.17312e-11
0.000576792
9.31262e-11
0.000576792
6.72353e-11
0.000576792
3.13697e-11
0.000576792
1.58958e-11
0.000576792
1.53199e-11
0.000576792
-5.05237e-12
0.000576792
1.50244e-11
0.000576792
-1.47173e-11
0.000576792
6.81626e-12
0.000576792
-2.12304e-11
0.000576792
-1.11053e-11
0.000576792
-2.62036e-11
0.000576792
-3.22771e-11
0.000576792
-3.13052e-11
0.000576792
-4.73356e-11
0.000576792
-4.09015e-11
0.000576792
-5.12671e-11
0.000576792
-4.18356e-11
0.000576792
-3.93921e-11
5.30395e-11
0.000551141
3.70167e-11
0.000551141
2.30626e-11
0.000551141
1.04622e-11
0.000551141
4.6314e-12
0.000551141
6.8094e-12
0.000551141
-4.42892e-12
0.000551141
7.33316e-12
0.000551141
-9.3929e-12
0.000551141
3.38389e-12
0.000551141
-1.18775e-11
0.000551141
-5.10993e-12
0.000551141
-1.2904e-11
0.000551141
-1.50577e-11
0.000551141
-1.38197e-11
0.000551141
-2.22989e-11
0.000551141
-1.68595e-11
0.000551141
-2.42342e-11
0.000551141
-1.53116e-11
0.000551141
-1.88736e-11
2.50414e-11
0.000519158
0.000519158
0.000519158
0.000519158
0.000519158
0.000519158
0.000519158
0.000519158
0.000519158
0.000519158
0.000519158
0.000519158
0.000519158
0.000519158
0.000519158
0.000519158
0.000519158
0.000519158
0.000519158
)
;

boundaryField
{
    top
    {
        type            calculated;
        value           uniform 0;
    }
    bottom
    {
        type            calculated;
        value           uniform 0;
    }
    inlet
    {
        type            calculated;
        value           nonuniform List<scalar> 
20
(
-4.41576e-05
-0.00012614
-0.000201791
-0.00027111
-0.000334097
-0.000390752
-0.000441076
-0.000485069
-0.000522731
-0.000554062
-0.000579062
-0.000597731
-0.00061007
-0.000616077
-0.000615753
-0.000609097
-0.00059611
-0.000576792
-0.000551141
-0.000519158
)
;
    }
    outlet
    {
        type            calculated;
        value           nonuniform List<scalar> 
20
(
4.41579e-05
0.000126141
0.000201792
0.00027111
0.000334097
0.000390752
0.000441076
0.000485069
0.000522731
0.000554062
0.000579062
0.000597731
0.000610069
0.000616076
0.000615752
0.000609097
0.00059611
0.000576792
0.000551141
0.000519158
)
;
    }
    frontAndBack
    {
        type            empty;
        value           nonuniform 0();
    }
}


// ************************************************************************* //
