/*--------------------------------*- C++ -*----------------------------------*\
| =========                 |                                                 |
| \\      /  F ield         | OpenFOAM: The Open Source CFD Toolbox           |
|  \\    /   O peration     | Version:  v1706                                 |
|   \\  /    A nd           | Web:      www.OpenFOAM.com                      |
|    \\/     M anipulation  |                                                 |
\*---------------------------------------------------------------------------*/
FoamFile
{
    version     2.0;
    format      ascii;
    class       volVectorField;
    location    "1.1";
    object      U;
}
// * * * * * * * * * * * * * * * * * * * * * * * * * * * * * * * * * * * * * //

dimensions      [0 1 -1 0 0 0 0];


internalField   nonuniform List<vector> 
400
(
(0.883153 -3.12194e-08 0)
(0.883155 -1.47059e-08 0)
(0.883156 -6.74021e-09 0)
(0.883156 1.49952e-09 0)
(0.883157 -4.15839e-09 0)
(0.883157 5.22724e-09 0)
(0.883157 -1.97586e-09 0)
(0.883157 3.67848e-09 0)
(0.883157 8.05258e-11 0)
(0.883157 -4.30169e-11 0)
(0.883157 1.0211e-09 0)
(0.883157 -4.24071e-09 0)
(0.883157 5.3798e-10 0)
(0.883157 -7.39191e-09 0)
(0.883157 -1.89176e-09 0)
(0.883157 -8.68875e-09 0)
(0.883157 -4.33038e-09 0)
(0.883157 -9.5749e-09 0)
(0.883157 -1.10398e-08 0)
(0.883158 -2.73894e-08 0)
(2.52281 -1.30431e-07 0)
(2.52281 -9.70648e-08 0)
(2.52282 -4.02173e-08 0)
(2.52282 -6.46491e-09 0)
(2.52282 -1.66921e-08 0)
(2.52282 1.17593e-08 0)
(2.52282 -6.1644e-09 0)
(2.52282 9.79239e-09 0)
(2.52282 3.23655e-10 0)
(2.52282 -3.89019e-10 0)
(2.52282 1.77847e-09 0)
(2.52282 -1.29599e-08 0)
(2.52282 -1.47023e-09 0)
(2.52282 -2.28198e-08 0)
(2.52282 -9.88267e-09 0)
(2.52282 -2.7266e-08 0)
(2.52282 -1.88994e-08 0)
(2.52282 -2.64325e-08 0)
(2.52282 -5.20706e-08 0)
(2.52282 -1.09296e-07 0)
(4.03582 -2.79668e-07 0)
(4.03583 -2.63597e-07 0)
(4.03583 -1.07889e-07 0)
(4.03583 -3.41045e-08 0)
(4.03583 -3.55758e-08 0)
(4.03583 1.03147e-08 0)
(4.03583 -9.99437e-09 0)
(4.03583 1.26023e-08 0)
(4.03583 6.47559e-10 0)
(4.03583 -2.09703e-09 0)
(4.03583 -7.60621e-10 0)
(4.03583 -2.28283e-08 0)
(4.03583 -1.07589e-08 0)
(4.03583 -4.01615e-08 0)
(4.03583 -2.74962e-08 0)
(4.03583 -4.89867e-08 0)
(4.03583 -4.61156e-08 0)
(4.03583 -4.01302e-08 0)
(4.03583 -1.24651e-07 0)
(4.03584 -2.29779e-07 0)
(5.42219 -4.35973e-07 0)
(5.4222 -4.64723e-07 0)
(5.4222 -1.95767e-07 0)
(5.4222 -7.45023e-08 0)
(5.4222 -5.84392e-08 0)
(5.4222 2.43446e-09 0)
(5.42221 -1.3387e-08 0)
(5.4222 1.21509e-08 0)
(5.42221 1.22832e-09 0)
(5.4222 -5.21623e-09 0)
(5.42221 -5.29742e-09 0)
(5.4222 -3.32536e-08 0)
(5.42221 -2.46383e-08 0)
(5.4222 -5.79616e-08 0)
(5.42221 -5.09847e-08 0)
(5.4222 -7.16419e-08 0)
(5.42221 -8.08455e-08 0)
(5.4222 -5.08316e-08 0)
(5.4222 -2.09392e-07 0)
(5.42221 -3.57157e-07 0)
(6.68193 -5.68419e-07 0)
(6.68193 -6.55131e-07 0)
(6.68194 -2.8653e-07 0)
(6.68194 -1.19421e-07 0)
(6.68194 -8.18229e-08 0)
(6.68194 -9.32123e-09 0)
(6.68194 -1.60343e-08 0)
(6.68194 9.38428e-09 0)
(6.68194 2.11449e-09 0)
(6.68194 -9.15311e-09 0)
(6.68194 -1.07586e-08 0)
(6.68194 -4.32835e-08 0)
(6.68194 -4.07075e-08 0)
(6.68194 -7.47112e-08 0)
(6.68194 -7.68967e-08 0)
(6.68194 -9.33769e-08 0)
(6.68194 -1.18027e-07 0)
(6.68194 -6.00426e-08 0)
(6.68194 -2.88651e-07 0)
(6.68194 -4.68962e-07 0)
(7.81504 -6.59896e-07 0)
(7.81504 -8.03859e-07 0)
(7.81505 -3.64966e-07 0)
(7.81504 -1.60999e-07 0)
(7.81505 -1.02691e-07 0)
(7.81505 -2.22328e-08 0)
(7.81505 -1.77005e-08 0)
(7.81505 5.51725e-09 0)
(7.81505 3.56249e-09 0)
(7.81505 -1.30219e-08 0)
(7.81505 -1.57435e-08 0)
(7.81505 -5.17128e-08 0)
(7.81505 -5.6142e-08 0)
(7.81505 -8.86705e-08 0)
(7.81505 -1.01301e-07 0)
(7.81505 -1.12091e-07 0)
(7.81505 -1.52173e-07 0)
(7.81505 -6.84532e-08 0)
(7.81505 -3.50821e-07 0)
(7.81505 -5.509e-07 0)
(8.82152 -7.0181e-07 0)
(8.82152 -8.92036e-07 0)
(8.82153 -4.18598e-07 0)
(8.82152 -1.92108e-07 0)
(8.82153 -1.17734e-07 0)
(8.82152 -3.37514e-08 0)
(8.82153 -1.78176e-08 0)
(8.82153 1.44713e-09 0)
(8.82153 5.60495e-09 0)
(8.82152 -1.6535e-08 0)
(8.82153 -1.98424e-08 0)
(8.82152 -5.83429e-08 0)
(8.82153 -6.98271e-08 0)
(8.82153 -9.95835e-08 0)
(8.82153 -1.22486e-07 0)
(8.82153 -1.27592e-07 0)
(8.82153 -1.80441e-07 0)
(8.82153 -7.77877e-08 0)
(8.82153 -3.91276e-07 0)
(8.82153 -5.95535e-07 0)
(9.70138 -6.92316e-07 0)
(9.70138 -9.11127e-07 0)
(9.70138 -4.39043e-07 0)
(9.70138 -2.07373e-07 0)
(9.70138 -1.24191e-07 0)
(9.70138 -4.18786e-08 0)
(9.70138 -1.58601e-08 0)
(9.70138 -2.22509e-09 0)
(9.70138 8.16446e-09 0)
(9.70138 -1.96261e-08 0)
(9.70138 -2.29811e-08 0)
(9.70138 -6.32327e-08 0)
(9.70138 -8.12024e-08 0)
(9.70138 -1.07519e-07 0)
(9.70138 -1.39465e-07 0)
(9.70138 -1.40022e-07 0)
(9.70138 -2.01073e-07 0)
(9.70138 -8.90792e-08 0)
(9.70138 -4.09256e-07 0)
(9.70138 -6.00327e-07 0)
(10.4546 -6.35522e-07 0)
(10.4546 -8.62401e-07 0)
(10.4546 -4.23288e-07 0)
(10.4546 -2.04084e-07 0)
(10.4546 -1.20514e-07 0)
(10.4546 -4.53709e-08 0)
(10.4546 -1.15653e-08 0)
(10.4546 -5.13878e-09 0)
(10.4546 1.10744e-08 0)
(10.4546 -2.23078e-08 0)
(10.4546 -2.52243e-08 0)
(10.4546 -6.65202e-08 0)
(10.4546 -8.99609e-08 0)
(10.4546 -1.12631e-07 0)
(10.4546 -1.51661e-07 0)
(10.4546 -1.49483e-07 0)
(10.4546 -2.13212e-07 0)
(10.4546 -1.02327e-07 0)
(10.4546 -4.06535e-07 0)
(10.4546 -5.67335e-07 0)
(11.0812 -5.40171e-07 0)
(11.0812 -7.55494e-07 0)
(11.0812 -3.74038e-07 0)
(11.0812 -1.8268e-07 0)
(11.0812 -1.06791e-07 0)
(11.0812 -4.38966e-08 0)
(11.0812 -5.08601e-09 0)
(11.0812 -7.17192e-09 0)
(11.0812 1.4081e-08 0)
(11.0812 -2.46217e-08 0)
(11.0812 -2.66751e-08 0)
(11.0812 -6.83511e-08 0)
(11.0812 -9.5914e-08 0)
(11.0812 -1.15061e-07 0)
(11.0812 -1.58795e-07 0)
(11.0812 -1.55871e-07 0)
(11.0812 -2.16814e-07 0)
(11.0812 -1.16517e-07 0)
(11.0812 -3.86351e-07 0)
(11.0812 -5.02384e-07 0)
(11.5812 -4.18201e-07 0)
(11.5812 -6.06316e-07 0)
(11.5812 -2.99011e-07 0)
(11.5812 -1.46669e-07 0)
(11.5812 -8.4821e-08 0)
(11.5812 -3.8079e-08 0)
(11.5812 2.96957e-09 0)
(11.5812 -8.43967e-09 0)
(11.5812 1.68569e-08 0)
(11.5812 -2.66196e-08 0)
(11.5812 -2.74351e-08 0)
(11.5812 -6.88418e-08 0)
(11.5812 -9.89499e-08 0)
(11.5812 -1.14882e-07 0)
(11.5812 -1.60836e-07 0)
(11.5812 -1.58829e-07 0)
(11.5812 -2.12543e-07 0)
(11.5812 -1.29881e-07 0)
(11.5812 -3.5262e-07 0)
(11.5812 -4.13983e-07 0)
(11.9546 -2.83278e-07 0)
(11.9546 -4.34586e-07 0)
(11.9546 -2.09517e-07 0)
(11.9546 -1.01957e-07 0)
(11.9546 -5.78236e-08 0)
(11.9546 -2.9349e-08 0)
(11.9546 1.16021e-08 0)
(11.9546 -9.24781e-09 0)
(11.9546 1.90328e-08 0)
(11.9546 -2.83466e-08 0)
(11.9546 -2.75834e-08 0)
(11.9546 -6.80663e-08 0)
(11.9546 -9.90243e-08 0)
(11.9546 -1.12097e-07 0)
(11.9546 -1.5798e-07 0)
(11.9546 -1.57822e-07 0)
(11.9546 -2.0156e-07 0)
(11.9546 -1.4025e-07 0)
(11.9546 -3.09423e-07 0)
(11.9546 -3.12211e-07 0)
(12.2014 -1.49583e-07 0)
(12.2014 -2.61404e-07 0)
(12.2014 -1.18526e-07 0)
(12.2014 -5.57294e-08 0)
(12.2014 -2.98503e-08 0)
(12.2014 -1.96325e-08 0)
(12.2014 1.95831e-08 0)
(12.2014 -9.99968e-09 0)
(12.2014 2.02546e-08 0)
(12.2014 -2.98074e-08 0)
(12.2014 -2.71575e-08 0)
(12.2014 -6.60364e-08 0)
(12.2014 -9.6147e-08 0)
(12.2014 -1.06658e-07 0)
(12.2014 -1.50576e-07 0)
(12.2014 -1.52266e-07 0)
(12.2014 -1.85276e-07 0)
(12.2014 -1.45423e-07 0)
(12.2014 -2.60741e-07 0)
(12.2014 -2.07691e-07 0)
(12.3215 -3.0574e-08 0)
(12.3215 -1.06791e-07 0)
(12.3215 -3.85705e-08 0)
(12.3215 -1.50758e-08 0)
(12.3215 -5.00585e-09 0)
(12.3215 -1.09245e-08 0)
(12.3215 2.56814e-08 0)
(12.3215 -1.10625e-08 0)
(12.3215 2.02569e-08 0)
(12.3215 -3.09174e-08 0)
(12.3215 -2.61302e-08 0)
(12.3215 -6.26739e-08 0)
(12.3215 -9.03549e-08 0)
(12.3215 -9.8478e-08 0)
(12.3215 -1.39028e-07 0)
(12.3215 -1.41672e-07 0)
(12.3215 -1.65109e-07 0)
(12.3215 -1.43474e-07 0)
(12.3215 -2.10295e-07 0)
(12.3215 -1.1059e-07 0)
(12.3151 6.20303e-08 0)
(12.315 1.25477e-08 0)
(12.3151 2.0376e-08 0)
(12.315 1.43799e-08 0)
(12.315 1.33693e-08 0)
(12.315 -4.837e-09 0)
(12.315 2.89107e-08 0)
(12.315 -1.26271e-08 0)
(12.315 1.89304e-08 0)
(12.315 -3.14631e-08 0)
(12.315 -2.44059e-08 0)
(12.315 -5.78134e-08 0)
(12.315 -8.17103e-08 0)
(12.315 -8.74925e-08 0)
(12.3151 -1.23729e-07 0)
(12.315 -1.25818e-07 0)
(12.3151 -1.42246e-07 0)
(12.315 -1.33081e-07 0)
(12.3151 -1.61499e-07 0)
(12.315 -2.97354e-08 0)
(12.1819 1.19478e-07 0)
(12.1819 8.54777e-08 0)
(12.1819 5.26082e-08 0)
(12.1819 2.96049e-08 0)
(12.1819 2.33318e-08 0)
(12.1819 -2.19263e-09 0)
(12.1819 2.87194e-08 0)
(12.1819 -1.45516e-08 0)
(12.1819 1.63674e-08 0)
(12.1819 -3.10518e-08 0)
(12.1819 -2.18194e-08 0)
(12.1819 -5.12072e-08 0)
(12.1819 -7.02876e-08 0)
(12.1819 -7.37177e-08 0)
(12.1819 -1.04993e-07 0)
(12.1819 -1.04915e-07 0)
(12.1819 -1.17454e-07 0)
(12.1819 -1.13847e-07 0)
(12.1819 -1.1728e-07 0)
(12.1819 2.81876e-08 0)
(11.9222 1.36789e-07 0)
(11.9222 1.08324e-07 0)
(11.9222 5.79722e-08 0)
(11.9222 3.08059e-08 0)
(11.9222 2.4701e-08 0)
(11.9222 -2.71803e-09 0)
(11.9222 2.51184e-08 0)
(11.9222 -1.62033e-08 0)
(11.9222 1.2895e-08 0)
(11.9222 -2.90574e-08 0)
(11.9222 -1.8129e-08 0)
(11.9222 -4.25428e-08 0)
(11.9222 -5.61772e-08 0)
(11.9222 -5.73282e-08 0)
(11.9222 -8.30702e-08 0)
(11.9222 -7.97596e-08 0)
(11.9222 -9.10451e-08 0)
(11.9222 -8.68107e-08 0)
(11.9222 -7.99206e-08 0)
(11.9222 5.90459e-08 0)
(11.5358 1.15321e-07 0)
(11.5358 8.82642e-08 0)
(11.5358 4.30744e-08 0)
(11.5358 2.20633e-08 0)
(11.5358 1.95553e-08 0)
(11.5358 -4.48885e-09 0)
(11.5358 1.88628e-08 0)
(11.5358 -1.613e-08 0)
(11.5358 8.83793e-09 0)
(11.5358 -2.47563e-08 0)
(11.5358 -1.36553e-08 0)
(11.5358 -3.21352e-08 0)
(11.5358 -4.04556e-08 0)
(11.5358 -3.99101e-08 0)
(11.5358 -5.94211e-08 0)
(11.5358 -5.33702e-08 0)
(11.5358 -6.44067e-08 0)
(11.5358 -5.63475e-08 0)
(11.5358 -5.08624e-08 0)
(11.5358 6.16327e-08 0)
(11.0228 6.69036e-08 0)
(11.0228 4.57807e-08 0)
(11.0228 2.05343e-08 0)
(11.0228 9.88336e-09 0)
(11.0228 1.12171e-08 0)
(11.0228 -5.22011e-09 0)
(11.0228 1.13176e-08 0)
(11.0228 -1.28416e-08 0)
(11.0228 5.04503e-09 0)
(11.0228 -1.72504e-08 0)
(11.0228 -8.1919e-09 0)
(11.0228 -1.9849e-08 0)
(11.0228 -2.36503e-08 0)
(11.0228 -2.22788e-08 0)
(11.0228 -3.48023e-08 0)
(11.0228 -2.80522e-08 0)
(11.0228 -3.76339e-08 0)
(11.0228 -2.72854e-08 0)
(11.0228 -2.81114e-08 0)
(11.0228 4.15484e-08 0)
(10.3832 1.93059e-08 0)
(10.3832 1.12991e-08 0)
(10.3832 4.70862e-09 0)
(10.3832 2.08218e-09 0)
(10.3832 3.42423e-09 0)
(10.3832 -2.35909e-09 0)
(10.3832 3.67999e-09 0)
(10.3832 -4.9943e-09 0)
(10.3832 1.56458e-09 0)
(10.3832 -6.28906e-09 0)
(10.3832 -2.74502e-09 0)
(10.3832 -6.74411e-09 0)
(10.3832 -7.71684e-09 0)
(10.3832 -7.03466e-09 0)
(10.3832 -1.13916e-08 0)
(10.3832 -8.36654e-09 0)
(10.3832 -1.23701e-08 0)
(10.3832 -7.30381e-09 0)
(10.3832 -9.10962e-09 0)
(10.3832 1.34285e-08 0)
)
;

boundaryField
{
    top
    {
        type            fixedValue;
        value           uniform (10 0 0);
    }
    bottom
    {
        type            fixedValue;
        value           uniform (0 0 0);
    }
    inlet
    {
        type            zeroGradient;
    }
    outlet
    {
        type            zeroGradient;
    }
    frontAndBack
    {
        type            empty;
    }
}


// ************************************************************************* //
