/*--------------------------------*- C++ -*----------------------------------*\
| =========                 |                                                 |
| \\      /  F ield         | OpenFOAM: The Open Source CFD Toolbox           |
|  \\    /   O peration     | Version:  v1706                                 |
|   \\  /    A nd           | Web:      www.OpenFOAM.com                      |
|    \\/     M anipulation  |                                                 |
\*---------------------------------------------------------------------------*/
FoamFile
{
    version     2.0;
    format      ascii;
    class       surfaceScalarField;
    location    "1.6";
    object      phi;
}
// * * * * * * * * * * * * * * * * * * * * * * * * * * * * * * * * * * * * * //

dimensions      [0 3 -1 0 0 0 0];
oriented        oriented;


internalField   nonuniform List<scalar> 
760
(
4.4163e-05
-1.53967e-11
4.4163e-05
-1.1342e-11
4.4163e-05
-3.35464e-12
4.4163e-05
-3.59626e-12
4.4163e-05
7.4136e-13
4.4163e-05
-2.59511e-12
4.4163e-05
1.69596e-12
4.4163e-05
-1.79159e-12
4.4163e-05
1.16423e-12
4.4163e-05
-5.7217e-13
4.4163e-05
9.37821e-14
4.4163e-05
5.64942e-13
4.4163e-05
-6.74483e-13
4.4163e-05
1.07093e-12
4.4163e-05
-6.90088e-13
4.4163e-05
8.7306e-13
4.4163e-05
-3.09023e-13
4.4163e-05
5.50976e-13
4.4163e-05
-2.17333e-12
-8.96316e-12
0.000126156
-4.449e-11
0.000126156
-3.84875e-11
0.000126156
-1.39243e-11
0.000126156
-9.79667e-12
0.000126156
-5.11688e-13
0.000126156
-5.33663e-12
0.000126156
3.20138e-12
0.000126156
-3.02273e-12
0.000126156
3.09301e-12
0.000126156
-1.21247e-13
0.000126156
1.66163e-12
0.000126156
2.83358e-12
0.000126156
8.28091e-13
0.000126156
4.91295e-12
0.000126156
1.67084e-12
0.000126156
5.97644e-12
0.000126156
3.13568e-12
0.000126156
6.76563e-12
0.000126156
-5.93392e-12
-2.55547e-11
0.000201817
-7.71244e-11
0.000201817
-7.42439e-11
0.000201817
-2.94326e-11
0.000201817
-1.79525e-11
0.000201817
-3.49164e-12
0.000201817
-8.09726e-12
0.000201817
3.87718e-12
0.000201817
-3.66087e-12
0.000201817
4.70561e-12
0.000201817
1.00656e-12
0.000201817
3.46498e-12
0.000201817
5.73341e-12
0.000201817
3.11515e-12
0.000201817
9.52525e-12
0.000201817
5.2257e-12
0.000201817
1.23644e-11
0.000201817
7.68955e-12
0.000201817
1.50871e-11
0.000201817
-1.17006e-11
-4.48074e-11
0.000271145
-1.07603e-10
0.000271145
-1.1137e-10
0.000271145
-4.68054e-11
0.000271145
-2.7347e-11
0.000271145
-7.19964e-12
0.000271145
-1.10762e-11
0.000271145
4.05922e-12
0.000271145
-4.04913e-12
0.000271145
5.91867e-12
0.000271145
2.47558e-12
0.000271145
5.08369e-12
0.000271145
8.84643e-12
0.000271145
5.50264e-12
0.000271145
1.42104e-11
0.000271145
9.07389e-12
0.000271145
1.88869e-11
0.000271145
1.23504e-11
0.000271145
2.37549e-11
0.000271145
-1.78787e-11
-6.3288e-11
0.00033414
-1.31576e-10
0.00033414
-1.43638e-10
0.00033414
-6.30725e-11
0.00033414
-3.65671e-11
0.00033414
-1.0964e-11
0.00033414
-1.38227e-11
0.00033414
3.85382e-12
0.00033414
-4.05958e-12
0.00033414
6.71836e-12
0.00033414
4.23132e-12
0.00033414
6.4909e-12
0.00033414
1.1988e-11
0.00033414
7.93644e-12
0.00033414
1.86845e-11
0.00033414
1.30896e-11
0.00033414
2.51465e-11
0.00033414
1.70625e-11
0.00033414
3.19999e-11
0.00033414
-2.29558e-11
-7.84819e-11
0.000390802
-1.46324e-10
0.000390802
-1.66559e-10
0.000390802
-7.55775e-11
0.000390802
-4.41607e-11
0.000390802
-1.41395e-11
0.000390802
-1.58732e-11
0.000390802
3.39456e-12
0.000390802
-3.59176e-12
0.000390802
7.13823e-12
0.000390802
6.19329e-12
0.000390802
7.70192e-12
0.000390802
1.49822e-11
0.000390802
1.03902e-11
0.000390802
2.2721e-11
0.000390802
1.71782e-11
0.000390802
3.08384e-11
0.000390802
2.1847e-11
0.000390802
3.92662e-11
0.000390802
-2.59426e-11
-8.85221e-11
0.000441132
-1.50594e-10
0.000441132
-1.77479e-10
0.000441132
-8.23563e-11
0.000441132
-4.89019e-11
0.000441132
-1.61645e-11
0.000441132
-1.68614e-11
0.000441132
2.83082e-12
0.000441132
-2.62204e-12
0.000441132
7.22454e-12
0.000441132
8.22764e-12
0.000441132
8.70403e-12
0.000441132
1.76264e-11
0.000441132
1.27642e-11
0.000441132
2.60719e-11
0.000441132
2.1143e-11
0.000441132
3.56078e-11
0.000441132
2.65734e-11
0.000441132
4.50306e-11
0.000441132
-2.64954e-11
-9.24235e-11
0.00048513
-1.44508e-10
0.00048513
-1.75635e-10
0.00048513
-8.24002e-11
0.00048513
-4.99966e-11
0.00048513
-1.66603e-11
0.00048513
-1.65646e-11
0.00048513
2.29755e-12
0.00048513
-1.19445e-12
0.00048513
7.03092e-12
0.00048513
1.01787e-11
0.00048513
9.46972e-12
0.00048513
1.97282e-11
0.00048513
1.49196e-11
0.00048513
2.85153e-11
0.00048513
2.47372e-11
0.00048513
3.91251e-11
0.00048513
3.09978e-11
0.00048513
4.88832e-11
0.00048513
-2.48072e-11
-9.00789e-11
0.000522795
-1.29265e-10
0.000522795
-1.61913e-10
0.000522795
-7.57664e-11
0.000522795
-4.72305e-11
0.000522795
-1.5504e-11
0.000522795
-1.49492e-11
0.000522795
1.89e-12
0.000522795
5.86603e-13
0.000522795
6.61029e-12
0.000522795
1.18936e-11
0.000522795
9.96522e-12
0.000522795
2.11374e-11
0.000522795
1.67067e-11
0.000522795
2.98935e-11
0.000522795
2.77086e-11
0.000522795
4.11482e-11
0.000522795
3.48163e-11
0.000522795
5.05964e-11
0.000522795
-2.13568e-11
-8.2083e-11
0.000554127
-1.06892e-10
0.000554127
-1.38561e-10
0.000554127
-6.35099e-11
0.000554127
-4.10111e-11
0.000554127
-1.28663e-11
0.000554127
-1.21857e-11
0.000554127
1.6401e-12
0.000554127
2.56374e-12
0.000554127
6.00475e-12
0.000554127
1.32357e-11
0.000554127
1.01528e-11
0.000554127
2.17572e-11
0.000554127
1.79795e-11
0.000554127
3.01242e-11
0.000554127
2.98221e-11
0.000554127
4.15486e-11
0.000554127
3.76989e-11
0.000554127
5.01297e-11
0.000554127
-1.67624e-11
-6.95791e-11
0.000579127
-7.99602e-11
0.000579127
-1.08776e-10
0.000579127
-4.74778e-11
0.000579127
-3.22936e-11
0.000579127
-9.19029e-12
0.000579127
-8.62964e-12
0.000579127
1.51083e-12
0.000579127
4.54039e-12
0.000579127
5.24151e-12
0.000579127
1.40938e-11
0.000579127
9.99662e-12
0.000579127
2.15489e-11
0.000579127
1.86116e-11
0.000579127
2.9207e-11
0.000579127
3.08816e-11
0.000579127
4.03201e-11
0.000579127
3.93309e-11
0.000579127
4.76176e-11
0.000579127
-1.16519e-11
-5.40707e-11
0.000597795
-5.13171e-11
0.000597795
-7.62809e-11
0.000597795
-2.99978e-11
0.000597795
-2.24016e-11
0.000597795
-5.10914e-12
0.000597795
-4.76487e-12
0.000597795
1.41106e-12
0.000597795
6.30154e-12
0.000597795
4.33627e-12
0.000597795
1.43888e-11
0.000597795
9.47027e-12
0.000597795
2.05311e-11
0.000597795
1.85105e-11
0.000597795
2.72154e-11
0.000597795
3.07481e-11
0.000597795
3.75781e-11
0.000597795
3.94543e-11
0.000597795
4.33457e-11
0.000597795
-6.59429e-12
-3.72512e-11
0.00061013
-2.38728e-11
0.00061013
-4.49005e-11
0.00061013
-1.3497e-11
0.00061013
-1.27826e-11
0.00061013
-1.31697e-12
0.00061013
-1.11867e-12
0.00061013
1.22824e-12
0.00061013
7.64042e-12
0.00061013
3.304e-12
0.00061013
1.40774e-11
0.00061013
8.56695e-12
0.00061013
1.87737e-11
0.00061013
1.76294e-11
0.00061013
2.42915e-11
0.00061013
2.93555e-11
0.00061013
3.35385e-11
0.00061013
3.79093e-11
0.00061013
3.77142e-11
0.00061013
-2.07789e-12
-2.08469e-11
0.000616132
-3.08001e-13
0.000616132
-1.80901e-11
0.000616132
-1.27551e-13
0.000616132
-4.73023e-12
0.000616132
1.57744e-12
0.000616132
1.83527e-12
0.000616132
8.71044e-13
0.000616132
8.38687e-12
0.000616132
2.17348e-12
0.000616132
1.31558e-11
0.000616132
7.31006e-12
0.000616132
1.63913e-11
0.000616132
1.59793e-11
0.000616132
2.06328e-11
0.000616132
2.67267e-11
0.000616132
2.8495e-11
0.000616132
3.46601e-11
0.000616132
3.12072e-11
0.000616132
1.51391e-12
-6.46679e-12
0.000615802
1.70584e-11
0.000615802
1.43245e-12
0.000615802
8.62351e-12
0.000615802
8.55918e-13
0.000615802
3.18756e-12
0.000615802
3.76589e-12
0.000615802
3.09942e-13
0.000615802
8.43556e-12
0.000615802
1.00378e-12
0.000615802
1.16629e-11
0.000615802
5.76586e-12
0.000615802
1.35363e-11
0.000615802
1.36401e-11
0.000615802
1.64846e-11
0.000615802
2.29806e-11
0.000615802
2.27992e-11
0.000615802
2.9837e-11
0.000615802
2.43388e-11
0.000615802
3.86455e-12
4.50957e-12
0.00060914
2.67035e-11
0.00060914
1.22349e-11
0.00060914
1.21823e-11
0.00060914
3.65704e-12
0.00060914
3.43546e-12
0.00060914
4.54099e-12
0.00060914
-3.945e-13
0.00060914
7.75672e-12
0.00060914
-1.05264e-13
0.00060914
9.67341e-12
0.00060914
4.04612e-12
0.00060914
1.03841e-11
0.00060914
1.07529e-11
0.00060914
1.21154e-11
0.00060914
1.83317e-11
0.00060914
1.68175e-11
0.00060914
2.37227e-11
0.00060914
1.75894e-11
0.00060914
4.75787e-12
1.10783e-11
0.000596145
2.79111e-11
0.000596145
1.43798e-11
0.000596145
1.11166e-11
0.000596145
3.97437e-12
0.000596145
2.57452e-12
0.000596145
4.24752e-12
0.000596145
-1.09807e-12
0.000596145
6.40724e-12
0.000596145
-1.02588e-12
0.000596145
7.29493e-12
0.000596145
2.29474e-12
0.000596145
7.11743e-12
0.000596145
7.50579e-12
0.000596145
7.78262e-12
0.000596145
1.30558e-11
0.000596145
1.08821e-11
0.000596145
1.67113e-11
0.000596145
1.1272e-11
0.000596145
4.026e-12
1.26833e-11
0.000576817
2.15011e-11
0.000576817
1.00842e-11
0.000576817
7.04993e-12
0.000576817
2.6811e-12
0.000576817
1.17736e-12
0.000576817
3.16053e-12
0.000576817
-1.52153e-12
0.000576817
4.53078e-12
0.000576817
-1.52402e-12
0.000576817
4.70939e-12
0.000576817
7.78633e-13
0.000576817
4.01577e-12
0.000576817
4.25202e-12
0.000576817
3.89748e-12
0.000576817
7.66428e-12
0.000576817
5.52281e-12
0.000576817
9.56186e-12
0.000576817
5.78926e-12
0.000576817
2.05837e-12
9.63327e-12
0.000551156
9.53689e-12
0.000551156
3.4346e-12
0.000551156
2.50125e-12
0.000551156
9.49699e-13
0.000551156
-1.9305e-14
0.000551156
1.66085e-12
0.000551156
-1.3978e-12
0.000551156
2.31751e-12
0.000551156
-1.4332e-12
0.000551156
2.08872e-12
0.000551156
-3.17613e-13
0.000551156
1.27781e-12
0.000551156
1.24503e-12
0.000551156
7.00053e-13
0.000551156
2.52738e-12
0.000551156
9.88293e-13
0.000551156
2.80205e-12
0.000551156
8.9918e-13
0.000551156
-8.19388e-13
2.85134e-12
0.000519163
0.000519163
0.000519163
0.000519163
0.000519163
0.000519163
0.000519163
0.000519163
0.000519163
0.000519163
0.000519163
0.000519163
0.000519163
0.000519163
0.000519163
0.000519163
0.000519163
0.000519163
0.000519163
)
;

boundaryField
{
    top
    {
        type            calculated;
        value           uniform 0;
    }
    bottom
    {
        type            calculated;
        value           uniform 0;
    }
    inlet
    {
        type            calculated;
        value           nonuniform List<scalar> 
20
(
-4.4163e-05
-0.000126156
-0.000201817
-0.000271144
-0.00033414
-0.000390802
-0.000441132
-0.00048513
-0.000522795
-0.000554127
-0.000579127
-0.000597795
-0.00061013
-0.000616132
-0.000615802
-0.00060914
-0.000596145
-0.000576817
-0.000551156
-0.000519163
)
;
    }
    outlet
    {
        type            calculated;
        value           nonuniform List<scalar> 
20
(
4.4163e-05
0.000126156
0.000201817
0.000271145
0.00033414
0.000390802
0.000441132
0.00048513
0.000522795
0.000554127
0.000579127
0.000597795
0.00061013
0.000616132
0.000615802
0.00060914
0.000596145
0.000576817
0.000551156
0.000519163
)
;
    }
    frontAndBack
    {
        type            empty;
        value           nonuniform 0();
    }
}


// ************************************************************************* //
