/*--------------------------------*- C++ -*----------------------------------*\
| =========                 |                                                 |
| \\      /  F ield         | OpenFOAM: The Open Source CFD Toolbox           |
|  \\    /   O peration     | Version:  v1706                                 |
|   \\  /    A nd           | Web:      www.OpenFOAM.com                      |
|    \\/     M anipulation  |                                                 |
\*---------------------------------------------------------------------------*/
FoamFile
{
    version     2.0;
    format      ascii;
    class       volVectorField;
    location    "1.6";
    object      U;
}
// * * * * * * * * * * * * * * * * * * * * * * * * * * * * * * * * * * * * * //

dimensions      [0 1 -1 0 0 0 0];


internalField   nonuniform List<vector> 
400
(
(0.88326 -7.08275e-09 0)
(0.88326 -4.3833e-09 0)
(0.88326 -1.41322e-09 0)
(0.88326 -9.23767e-10 0)
(0.88326 3.45948e-11 0)
(0.88326 -5.8907e-10 0)
(0.88326 5.83143e-10 0)
(0.88326 -4.42714e-10 0)
(0.88326 6.71904e-10 0)
(0.88326 -5.0792e-11 0)
(0.88326 5.30355e-10 0)
(0.88326 4.77061e-10 0)
(0.88326 3.96943e-10 0)
(0.88326 9.71404e-10 0)
(0.88326 5.73506e-10 0)
(0.88326 1.37771e-09 0)
(0.88326 9.74728e-10 0)
(0.88326 1.5115e-09 0)
(0.88326 1.82652e-10 0)
(0.88326 -3.58351e-09 0)
(2.52312 -2.8421e-08 0)
(2.52312 -2.25704e-08 0)
(2.52312 -7.08039e-09 0)
(2.52312 -6.4648e-09 0)
(2.52313 7.61133e-10 0)
(2.52313 -4.19702e-09 0)
(2.52313 2.67634e-09 0)
(2.52313 -2.69055e-09 0)
(2.52313 2.02767e-09 0)
(2.52313 -5.75804e-10 0)
(2.52313 5.09175e-10 0)
(2.52313 1.40783e-09 0)
(2.52313 -5.19581e-10 0)
(2.52313 2.45615e-09 0)
(2.52313 -2.55863e-10 0)
(2.52313 2.54196e-09 0)
(2.52313 5.74293e-10 0)
(2.52313 2.29579e-09 0)
(2.52313 -4.41531e-09 0)
(2.52313 -1.70134e-08 0)
(4.03633 -6.02294e-08 0)
(4.03633 -5.46733e-08 0)
(4.03634 -2.08216e-08 0)
(4.03634 -1.29548e-08 0)
(4.03634 -1.97311e-09 0)
(4.03634 -6.18668e-09 0)
(4.03634 3.50505e-09 0)
(4.03634 -3.06655e-09 0)
(4.03634 4.05447e-09 0)
(4.03634 5.72166e-10 0)
(4.03634 2.93627e-09 0)
(4.03634 4.43541e-09 0)
(4.03634 2.48669e-09 0)
(4.03634 7.57608e-09 0)
(4.03634 4.09001e-09 0)
(4.03634 9.91131e-09 0)
(4.03634 6.29079e-09 0)
(4.03634 1.18524e-08 0)
(4.03634 -7.5854e-09 0)
(4.03634 -3.39775e-08 0)
(5.42289 -9.32974e-08 0)
(5.42289 -9.30291e-08 0)
(5.42289 -3.78886e-08 0)
(5.42289 -2.24742e-08 0)
(5.42289 -5.23546e-09 0)
(5.42289 -9.60452e-09 0)
(5.42289 4.03998e-09 0)
(5.42289 -3.98173e-09 0)
(5.42289 5.33532e-09 0)
(5.42289 1.57175e-09 0)
(5.42289 4.19668e-09 0)
(5.42289 7.11122e-09 0)
(5.42289 4.09943e-09 0)
(5.42289 1.16477e-08 0)
(5.42289 6.80201e-09 0)
(5.42289 1.52682e-08 0)
(5.42289 9.58402e-09 0)
(5.42289 1.8938e-08 0)
(5.42289 -1.5341e-08 0)
(5.42289 -5.4856e-08 0)
(6.68279 -1.21543e-07 0)
(6.68279 -1.29238e-07 0)
(6.6828 -5.5547e-08 0)
(6.6828 -3.21452e-08 0)
(6.6828 -9.16789e-09 0)
(6.6828 -1.25562e-08 0)
(6.6828 4.01112e-09 0)
(6.6828 -4.18071e-09 0)
(6.6828 6.38825e-09 0)
(6.6828 3.24268e-09 0)
(6.6828 5.79413e-09 0)
(6.6828 1.03528e-08 0)
(6.6828 6.63472e-09 0)
(6.6828 1.64148e-08 0)
(6.6828 1.09231e-08 0)
(6.6828 2.19189e-08 0)
(6.6828 1.44967e-08 0)
(6.6828 2.78275e-08 0)
(6.6828 -2.09944e-08 0)
(6.6828 -7.20403e-08 0)
(7.81605 -1.41377e-07 0)
(7.81605 -1.57772e-07 0)
(7.81605 -7.05746e-08 0)
(7.81605 -4.09298e-08 0)
(7.81605 -1.27924e-08 0)
(7.81605 -1.50762e-08 0)
(7.81605 3.64981e-09 0)
(7.81605 -3.97109e-09 0)
(7.81605 6.99158e-09 0)
(7.81605 5.13431e-09 0)
(7.81605 7.10686e-09 0)
(7.81605 1.34839e-08 0)
(7.81605 9.10134e-09 0)
(7.81605 2.07508e-08 0)
(7.81605 1.5027e-08 0)
(7.81605 2.80294e-08 0)
(7.81605 1.92876e-08 0)
(7.81605 3.57757e-08 0)
(7.81605 -2.51084e-08 0)
(7.81605 -8.49842e-08 0)
(8.82265 -1.50998e-07 0)
(8.82265 -1.75127e-07 0)
(8.82265 -8.06382e-08 0)
(8.82265 -4.73801e-08 0)
(8.82265 -1.55258e-08 0)
(8.82265 -1.66815e-08 0)
(8.82265 3.0969e-09 0)
(8.82265 -3.25746e-09 0)
(8.82265 7.22636e-09 0)
(8.82265 7.16121e-09 0)
(8.82265 8.21103e-09 0)
(8.82265 1.63456e-08 0)
(8.82265 1.15335e-08 0)
(8.82265 2.4493e-08 0)
(8.82265 1.90921e-08 0)
(8.82265 3.33468e-08 0)
(8.82265 2.40681e-08 0)
(8.82265 4.24162e-08 0)
(8.82265 -2.68572e-08 0)
(8.82265 -9.20829e-08 0)
(9.7026 -1.4991e-07 0)
(9.7026 -1.79655e-07 0)
(9.7026 -8.41919e-08 0)
(9.7026 -5.0454e-08 0)
(9.7026 -1.68526e-08 0)
(9.7026 -1.7075e-08 0)
(9.7026 2.52173e-09 0)
(9.7026 -2.04708e-09 0)
(9.7026 7.16042e-09 0)
(9.7026 9.19294e-09 0)
(9.7026 9.09918e-09 0)
(9.7026 1.87639e-08 0)
(9.7026 1.38295e-08 0)
(9.7026 2.74399e-08 0)
(9.7026 2.2929e-08 0)
(9.7026 3.75633e-08 0)
(9.7026 2.8712e-08 0)
(9.7026 4.73199e-08 0)
(9.7026 -2.61575e-08 0)
(9.7026 -9.27783e-08 0)
(10.4559 -1.38843e-07 0)
(10.4559 -1.71484e-07 0)
(10.4559 -8.07625e-08 0)
(10.4559 -4.96083e-08 0)
(10.4559 -1.65196e-08 0)
(10.4559 -1.61111e-08 0)
(10.4559 2.03438e-09 0)
(10.4559 -4.15463e-10 0)
(10.4559 6.83989e-09 0)
(10.4559 1.10597e-08 0)
(10.4559 9.73311e-09 0)
(10.4559 2.05463e-08 0)
(10.4559 1.58292e-08 0)
(10.4559 2.93742e-08 0)
(10.4559 2.6253e-08 0)
(10.4559 4.03703e-08 0)
(10.4559 3.29e-08 0)
(10.4559 5.01312e-08 0)
(10.4559 -2.34419e-08 0)
(10.4559 -8.73898e-08 0)
(11.0825 -1.1947e-07 0)
(11.0825 -1.52267e-07 0)
(11.0825 -7.09383e-08 0)
(11.0825 -4.49441e-08 0)
(11.0825 -1.45422e-08 0)
(11.0825 -1.38591e-08 0)
(11.0825 1.7067e-09 0)
(11.0825 1.50451e-09 0)
(11.0825 6.31651e-09 0)
(11.0825 1.26169e-08 0)
(11.0825 1.00798e-08 0)
(11.0825 2.15744e-08 0)
(11.0825 1.73865e-08 0)
(11.0825 3.01839e-08 0)
(11.0825 2.8831e-08 0)
(11.0825 4.15893e-08 0)
(11.0825 3.6322e-08 0)
(11.0825 5.07346e-08 0)
(11.0825 -1.92751e-08 0)
(11.0825 -7.68149e-08 0)
(11.5825 -9.4162e-08 0)
(11.5825 -1.24833e-07 0)
(11.5825 -5.62399e-08 0)
(11.5825 -3.71766e-08 0)
(11.5825 -1.12405e-08 0)
(11.5825 -1.05919e-08 0)
(11.5825 1.53608e-09 0)
(11.5825 3.5314e-09 0)
(11.5825 5.62674e-09 0)
(11.5825 1.37399e-08 0)
(11.5825 1.01018e-08 0)
(11.5825 2.17812e-08 0)
(11.5825 1.83559e-08 0)
(11.5825 2.98289e-08 0)
(11.5825 3.04609e-08 0)
(11.5825 4.1157e-08 0)
(11.5825 3.86476e-08 0)
(11.5825 4.91799e-08 0)
(11.5825 -1.42996e-08 0)
(11.5825 -6.2421e-08 0)
(11.9559 -6.56828e-08 0)
(11.9559 -9.27498e-08 0)
(11.9559 -3.8848e-08 0)
(11.9559 -2.75025e-08 0)
(11.9559 -7.18078e-09 0)
(11.9559 -6.74846e-09 0)
(11.9559 1.4524e-09 0)
(11.9559 5.45472e-09 0)
(11.9559 4.79099e-09 0)
(11.9559 1.43327e-08 0)
(11.9559 9.7661e-09 0)
(11.9559 2.11587e-08 0)
(11.9559 1.86261e-08 0)
(11.9559 2.83482e-08 0)
(11.9559 3.09646e-08 0)
(11.9559 3.91257e-08 0)
(11.9559 3.95697e-08 0)
(11.9559 4.56828e-08 0)
(11.9559 -9.11953e-09 0)
(11.9559 -4.58459e-08 0)
(12.2026 -3.69693e-08 0)
(12.2026 -5.9902e-08 0)
(12.2026 -2.12408e-08 0)
(12.2026 -1.73786e-08 0)
(12.2026 -3.06454e-09 0)
(12.2026 -2.85946e-09 0)
(12.2026 1.34343e-09 0)
(12.2026 7.05584e-09 0)
(12.2026 3.821e-09 0)
(12.2026 1.43327e-08 0)
(12.2026 9.05313e-09 0)
(12.2026 1.97515e-08 0)
(12.2026 1.81461e-08 0)
(12.2026 2.58513e-08 0)
(12.2026 3.02197e-08 0)
(12.2026 3.56628e-08 0)
(12.2026 3.88624e-08 0)
(12.2026 4.06138e-08 0)
(12.2026 -4.26422e-09 0)
(12.2026 -2.88368e-08 0)
(12.3226 -1.08567e-08 0)
(12.3226 -3.00285e-08 0)
(12.3226 -5.81006e-09 0)
(12.3226 -8.24716e-09 0)
(12.3226 4.19089e-10 0)
(12.3226 5.45318e-10 0)
(12.3226 1.09687e-09 0)
(12.3226 8.13212e-09 0)
(12.3226 2.73334e-09 0)
(12.3226 1.37107e-08 0)
(12.3226 7.96403e-09 0)
(12.3226 1.76481e-08 0)
(12.3226 1.68849e-08 0)
(12.3226 2.25015e-08 0)
(12.3226 2.81916e-08 0)
(12.3226 3.10374e-08 0)
(12.3226 3.64388e-08 0)
(12.3226 3.44213e-08 0)
(12.3226 -1.7476e-10 0)
(12.3226 -1.30999e-08 0)
(12.316 1.00792e-08 0)
(12.316 -6.33295e-09 0)
(12.316 5.54158e-09 0)
(12.316 -1.25796e-09 0)
(12.316 2.73814e-09 0)
(12.316 3.05652e-09 0)
(12.316 6.37417e-10 0)
(12.316 8.55727e-09 0)
(12.316 1.5687e-09 0)
(12.316 1.25011e-08 0)
(12.316 6.55244e-09 0)
(12.316 1.50024e-08 0)
(12.316 1.48803e-08 0)
(12.316 1.85518e-08 0)
(12.316 2.49902e-08 0)
(12.316 2.5621e-08 0)
(12.316 3.23892e-08 0)
(12.316 2.7649e-08 0)
(12.316 2.84361e-09 0)
(12.316 -1.37929e-10 0)
(12.1828 2.38621e-08 0)
(12.1828 8.99871e-09 0)
(12.1828 1.17047e-08 0)
(12.1828 2.93788e-09 0)
(12.1828 3.64737e-09 0)
(12.1828 4.40985e-09 0)
(12.1828 -1.70573e-11 0)
(12.1828 8.23212e-09 0)
(12.1828 4.04478e-10 0)
(12.1828 1.07311e-08 0)
(12.1828 4.88757e-09 0)
(12.1828 1.19493e-08 0)
(12.1828 1.22062e-08 0)
(12.1828 1.42248e-08 0)
(12.1828 2.07212e-08 0)
(12.1828 1.9696e-08 0)
(12.1828 2.68188e-08 0)
(12.1828 2.07124e-08 0)
(12.1828 4.45055e-09 0)
(12.1828 8.79977e-09 0)
(11.9229 2.91906e-08 0)
(11.9229 1.50947e-08 0)
(11.9229 1.26298e-08 0)
(11.9229 4.32653e-09 0)
(11.9229 3.17248e-09 0)
(11.9229 4.61525e-09 0)
(11.9229 -8.59942e-10 0)
(11.9229 7.19237e-09 0)
(11.9229 -7.51887e-10 0)
(11.9229 8.46514e-09 0)
(11.9229 2.9967e-09 0)
(11.9229 8.56786e-09 0)
(11.9229 8.94765e-09 0)
(11.9229 9.60389e-09 0)
(11.9229 1.54636e-08 0)
(11.9229 1.33501e-08 0)
(11.9229 1.98351e-08 0)
(11.9229 1.37215e-08 0)
(11.9229 4.11699e-09 0)
(11.9229 1.26942e-08 0)
(11.5363 2.59926e-08 0)
(11.5363 1.33489e-08 0)
(11.5363 9.53682e-09 0)
(11.5363 3.5602e-09 0)
(11.5363 2.14449e-09 0)
(11.5363 3.72245e-09 0)
(11.5363 -1.03752e-09 0)
(11.5363 5.47028e-09 0)
(11.5363 -9.91077e-10 0)
(11.5363 6.10822e-09 0)
(11.5363 1.83978e-09 0)
(11.5363 5.85912e-09 0)
(11.5363 6.26828e-09 0)
(11.5363 6.35259e-09 0)
(11.5363 1.09419e-08 0)
(11.5363 8.97058e-09 0)
(11.5363 1.40874e-08 0)
(11.5363 9.51299e-09 0)
(11.5363 4.3681e-09 0)
(11.5363 1.25768e-08 0)
(11.0231 1.61197e-08 0)
(11.0231 6.83185e-09 0)
(11.0231 4.73073e-09 0)
(11.0231 1.82031e-09 0)
(11.0231 2.75547e-10 0)
(11.0231 2.59189e-09 0)
(11.0231 -1.94323e-09 0)
(11.0231 3.574e-09 0)
(11.0231 -2.01852e-09 0)
(11.0231 3.30475e-09 0)
(11.0231 -2.7199e-10 0)
(11.0231 2.20197e-09 0)
(11.0231 2.24529e-09 0)
(11.0231 1.45427e-09 0)
(11.0231 4.36326e-09 0)
(11.0231 2.04822e-09 0)
(11.0231 5.0314e-09 0)
(11.0231 1.94265e-09 0)
(11.0231 -4.22959e-10 0)
(11.0231 6.19679e-09 0)
(10.3833 5.05325e-09 0)
(10.3833 1.87692e-09 0)
(10.3833 1.15498e-09 0)
(10.3833 4.02475e-10 0)
(10.3833 2.41632e-10 0)
(10.3833 5.76823e-10 0)
(10.3833 -2.39137e-10 0)
(10.3833 9.07939e-10 0)
(10.3833 -2.49815e-10 0)
(10.3833 1.00005e-09 0)
(10.3833 2.17441e-10 0)
(10.3833 9.31395e-10 0)
(10.3833 9.7152e-10 0)
(10.3833 9.4958e-10 0)
(10.3833 1.73899e-09 0)
(10.3833 1.36916e-09 0)
(10.3833 2.27812e-09 0)
(10.3833 1.61929e-09 0)
(10.3833 1.01225e-09 0)
(10.3833 2.32242e-09 0)
)
;

boundaryField
{
    top
    {
        type            fixedValue;
        value           uniform (10 0 0);
    }
    bottom
    {
        type            fixedValue;
        value           uniform (0 0 0);
    }
    inlet
    {
        type            zeroGradient;
    }
    outlet
    {
        type            zeroGradient;
    }
    frontAndBack
    {
        type            empty;
    }
}


// ************************************************************************* //
