/*--------------------------------*- C++ -*----------------------------------*\
| =========                 |                                                 |
| \\      /  F ield         | OpenFOAM: The Open Source CFD Toolbox           |
|  \\    /   O peration     | Version:  v1706                                 |
|   \\  /    A nd           | Web:      www.OpenFOAM.com                      |
|    \\/     M anipulation  |                                                 |
\*---------------------------------------------------------------------------*/
FoamFile
{
    version     2.0;
    format      ascii;
    class       surfaceScalarField;
    location    "1";
    object      phi;
}
// * * * * * * * * * * * * * * * * * * * * * * * * * * * * * * * * * * * * * //

dimensions      [0 3 -1 0 0 0 0];
oriented        oriented;


internalField   nonuniform List<scalar> 
760
(
4.4155e-05
-1.10599e-10
4.41551e-05
-1.05197e-10
4.41551e-05
-3.78786e-11
4.41552e-05
-2.25683e-12
4.41552e-05
-1.40921e-12
4.41552e-05
2.05773e-11
4.41552e-05
7.33588e-12
4.41552e-05
2.05457e-11
4.41552e-05
1.04917e-11
4.41552e-05
1.55198e-11
4.41552e-05
6.00072e-12
4.41552e-05
2.70149e-12
4.41552e-05
1.91274e-12
4.41552e-05
-6.04745e-12
4.41552e-05
6.21242e-12
4.41552e-05
-6.18907e-12
4.41552e-05
6.14522e-12
4.41552e-05
6.94702e-12
4.41552e-05
-2.50943e-11
-9.11616e-11
0.000126133
-3.11082e-10
0.000126133
-3.41922e-10
0.000126133
-1.35339e-10
0.000126133
-3.90794e-11
0.000126133
-1.83575e-11
0.000126133
3.28971e-11
0.000126133
1.44989e-11
0.000126133
4.09665e-11
0.000126133
2.13034e-11
0.000126133
3.14584e-11
0.000126133
1.06864e-11
0.000126133
7.37051e-12
0.000126133
1.62596e-12
0.000126133
-8.01101e-12
0.000126133
8.01884e-12
0.000126133
-6.40724e-12
0.000126133
5.97662e-12
0.000126133
2.14609e-11
0.000126133
-8.74604e-11
-2.51029e-10
0.000201778
-5.35419e-10
0.000201778
-6.44911e-10
0.000201778
-2.73978e-10
0.000201779
-9.80872e-11
0.000201779
-4.31608e-11
0.000201779
4.04142e-11
0.000201779
2.61583e-11
0.000201779
6.15554e-11
0.000201779
3.6485e-11
0.000201779
4.63191e-11
0.000201779
1.73268e-11
0.000201779
1.13273e-11
0.000201779
1.16805e-12
0.000201779
-7.87754e-12
0.000201779
6.06622e-12
0.000201779
-2.44544e-13
0.000201779
-7.44596e-13
0.000201779
4.47112e-11
0.000201779
-1.66751e-10
-4.27743e-10
0.000271092
-7.40654e-10
0.000271092
-9.52077e-10
0.000271092
-4.28278e-10
0.000271092
-1.68236e-10
0.000271092
-7.05095e-11
0.000271092
4.42399e-11
0.000271092
4.17135e-11
0.000271092
8.13122e-11
0.000271092
5.43708e-11
0.000271092
5.9021e-11
0.000271092
2.49082e-11
0.000271092
1.42001e-11
0.000271092
4.4146e-13
0.000271092
-5.94136e-12
0.000271092
5.6621e-13
0.000271092
1.12803e-11
0.000271092
-1.29812e-11
0.000271092
7.21712e-11
0.000271093
-2.4076e-10
-5.91246e-10
0.000334074
-8.97791e-10
0.000334075
-1.21407e-09
0.000334075
-5.73313e-10
0.000334075
-2.35941e-10
0.000334075
-9.4528e-11
0.000334075
4.71984e-11
0.000334075
6.02184e-11
0.000334075
1.00014e-10
0.000334075
7.41215e-11
0.000334075
6.96837e-11
0.000334075
3.35265e-11
0.000334075
1.56471e-11
0.000334075
-1.22614e-13
0.000334075
-3.65669e-12
0.000334075
-7.28988e-12
0.000334075
2.54042e-11
0.000334075
-2.84275e-11
0.000334075
9.86755e-11
0.000334075
-2.95919e-10
-7.19274e-10
0.000390726
-9.87524e-10
0.000390726
-1.39389e-09
0.000390726
-6.85726e-10
0.000390727
-2.89195e-10
0.000390727
-1.0992e-10
0.000390727
5.07924e-11
0.000390727
8.02657e-11
0.000390727
1.16354e-10
0.000390727
9.38769e-11
0.000390727
7.75794e-11
0.000390727
4.23612e-11
0.000390727
1.55479e-11
0.000390727
-4.68906e-13
0.000390727
-1.52072e-12
0.000390727
-1.65218e-11
0.000390727
4.0058e-11
0.000390727
-4.46626e-11
0.000390727
1.19306e-10
0.000390727
-3.25257e-10
-7.96185e-10
0.000441047
-1.00238e-09
0.000441047
-1.47073e-09
0.000441047
-7.47941e-10
0.000441047
-3.17838e-10
0.000441047
-1.11901e-10
0.000441047
5.70109e-11
0.000441047
1.01044e-10
0.000441047
1.29615e-10
0.000441047
1.12287e-10
0.000441047
8.23895e-11
0.000441047
5.08304e-11
0.000441047
1.39071e-11
0.000441047
-4.75613e-13
0.000441047
-5.49861e-15
0.000441047
-2.59155e-11
0.000441047
5.33176e-11
0.000441047
-5.91316e-11
0.000441047
1.30839e-10
0.000441047
-3.2783e-10
-8.14898e-10
0.000485038
-9.44321e-10
0.000485038
-1.43908e-09
0.000485038
-7.50386e-10
0.000485038
-3.15555e-10
0.000485038
-9.75074e-11
0.000485038
6.73073e-11
0.000485038
1.22006e-10
0.000485038
1.39474e-10
0.000485038
1.28357e-10
0.000485038
8.40277e-11
0.000485038
5.83728e-11
0.000485038
1.08157e-11
0.000485038
-1.4124e-13
0.000485038
5.78205e-13
0.000485038
-3.43831e-11
0.000485038
6.37387e-11
0.000485038
-6.98148e-11
0.000485038
1.32082e-10
0.000485038
-3.06552e-10
-7.75774e-10
0.000522698
-8.23537e-10
0.000522698
-1.30784e-09
0.000522698
-6.93095e-10
0.000522698
-2.81463e-10
0.000522698
-6.67581e-11
0.000522698
8.18176e-11
0.000522698
1.42231e-10
0.000522698
1.45571e-10
0.000522698
1.41181e-10
0.000522698
8.25256e-11
0.000522698
6.45027e-11
0.000522698
6.48261e-12
0.000522698
5.12801e-13
0.000522698
8.34327e-14
0.000522698
-4.10659e-11
0.000522698
7.03867e-11
0.000522698
-7.55963e-11
0.000522698
1.23628e-10
0.000522698
-2.66836e-10
-6.85798e-10
0.000554028
-6.55815e-10
0.000554028
-1.09719e-09
0.000554028
-5.85184e-10
0.000554028
-2.2029e-10
0.000554028
-2.29317e-11
0.000554028
9.91048e-11
0.000554028
1.60285e-10
0.000554028
1.47482e-10
0.000554028
1.49945e-10
0.000554028
7.8028e-11
0.000554028
6.8802e-11
0.000554028
1.21732e-12
0.000554028
1.40917e-12
0.000554028
-1.45035e-12
0.000554028
-4.54419e-11
0.000554028
7.29242e-11
0.000554028
-7.63457e-11
0.000554028
1.07499e-10
0.000554028
-2.15018e-10
-5.56841e-10
0.000579029
-4.60483e-10
0.000579028
-8.3516e-10
0.000579028
-4.42996e-10
0.000579028
-1.41533e-10
0.000579028
2.78534e-11
0.000579028
1.1632e-10
0.000579028
1.74254e-10
0.000579028
1.44735e-10
0.000579028
1.53933e-10
0.000579028
7.07894e-11
0.000579028
7.09332e-11
0.000579028
-4.56907e-12
0.000579028
2.42769e-12
0.000579028
-3.78217e-12
0.000579028
-4.73372e-11
0.000579028
7.15903e-11
0.000579028
-7.27741e-11
0.000579028
8.65887e-11
0.000579028
-1.57471e-10
-4.04012e-10
0.000597699
-2.58431e-10
0.000597698
-5.53936e-10
0.000597698
-2.8721e-10
0.000597698
-5.76746e-11
0.000597698
7.77333e-11
0.000597698
1.29787e-10
0.000597698
1.82016e-10
0.000597698
1.36927e-10
0.000597698
1.52593e-10
0.000597698
6.11986e-11
0.000597698
7.06609e-11
0.000597698
-1.03653e-11
0.000597698
3.4262e-12
0.000597698
-6.48267e-12
0.000597698
-4.68725e-11
0.000597698
6.70885e-11
0.000597698
-6.61437e-11
0.000597698
6.41233e-11
0.000597698
-1.00041e-10
-2.43951e-10
0.000610039
-7.00906e-11
0.000610038
-2.85941e-10
0.000610038
-1.39487e-10
0.000610038
1.82245e-11
0.000610038
1.18635e-10
0.000610038
1.35892e-10
0.000610038
1.81688e-10
0.000610038
1.2393e-10
0.000610038
1.45625e-10
0.000610038
4.98026e-11
0.000610038
6.78757e-11
0.000610038
-1.55798e-11
0.000610038
4.27447e-12
0.000610038
-8.98763e-12
0.000610038
-4.43555e-11
0.000610038
6.04075e-11
0.000610038
-5.78934e-11
0.000610038
4.32006e-11
0.000610038
-4.77976e-11
-9.32208e-11
0.000616048
8.57426e-11
0.000616048
-6.05321e-11
0.000616048
-1.88397e-11
0.000616048
7.50236e-11
0.000616048
1.43959e-10
0.000616048
1.32068e-10
0.000616048
1.72123e-10
0.000616048
1.06115e-10
0.000616048
1.33083e-10
0.000616048
3.73354e-11
0.000616048
6.26142e-11
0.000616048
-1.95778e-11
0.000616048
4.88233e-12
0.000616048
-1.06962e-11
0.000616048
-4.01616e-11
0.000616048
5.25875e-11
0.000616048
-4.92961e-11
0.000616048
2.63283e-11
0.000616048
-5.02211e-12
3.31135e-11
0.000615727
1.94263e-10
0.000615727
9.99664e-11
0.000615727
6.1338e-11
0.000615727
1.05713e-10
0.000615727
1.49913e-10
0.000615727
1.17504e-10
0.000615727
1.53242e-10
0.000615727
8.44638e-11
0.000615727
1.15452e-10
0.000615727
2.47295e-11
0.000615727
5.51027e-11
0.000615727
-2.17363e-11
0.000615727
5.22219e-12
0.000615727
-1.11017e-11
0.000615727
-3.46621e-11
0.000615727
4.44917e-11
0.000615727
-4.12012e-11
0.000615727
1.51139e-11
0.000615727
2.50283e-11
1.2305e-10
0.000609075
2.45317e-10
0.000609075
1.82992e-10
0.000609075
9.6334e-11
0.000609075
1.09044e-10
0.000609075
1.36608e-10
0.000609075
9.39496e-11
0.000609075
1.26482e-10
0.000609075
6.09382e-11
0.000609075
9.37893e-11
0.000609075
1.3206e-11
0.000609075
4.57021e-11
0.000609075
-2.15549e-11
0.000609075
5.24412e-12
0.000609075
-9.97819e-12
0.000609075
-2.81665e-11
0.000609075
3.65792e-11
0.000609075
-3.37697e-11
0.000609075
9.79179e-12
0.000609075
4.01569e-11
1.68806e-10
0.000596093
2.37644e-10
0.000596093
1.90432e-10
0.000596093
9.12521e-11
0.000596093
9.0157e-11
0.000596093
1.08537e-10
0.000596093
6.56267e-11
0.000596093
9.50738e-11
0.000596093
3.84192e-11
0.000596093
7.0056e-11
0.000596093
4.209e-12
0.000596093
3.50918e-11
0.000596093
-1.88326e-11
0.000596093
4.83677e-12
0.000596093
-7.52409e-12
0.000596093
-2.11602e-11
0.000596093
2.89678e-11
0.000596093
-2.67542e-11
0.000596093
9.33409e-12
0.000596093
4.07199e-11
1.68863e-10
0.000576779
1.75286e-10
0.000576779
1.37205e-10
0.000576779
5.9909e-11
0.000576779
5.77466e-11
0.000576779
7.08697e-11
0.000576779
3.7402e-11
0.000576779
6.11377e-11
0.000576779
1.98415e-11
0.000576779
4.5323e-11
0.000576779
-6.89876e-13
0.000576779
2.34566e-11
0.000576779
-1.3438e-11
0.000576779
3.76933e-12
0.000576779
-4.43131e-12
0.000576779
-1.37677e-11
0.000576779
2.03856e-11
0.000576779
-1.88611e-11
0.000576779
9.87114e-12
0.000576779
2.8629e-11
1.27545e-10
0.000551133
7.99988e-11
0.000551133
5.87791e-11
0.000551133
2.37787e-11
0.000551133
2.47745e-11
0.000551133
3.36543e-11
0.000551133
1.54232e-11
0.000551133
2.95846e-11
0.000551133
7.96422e-12
0.000551133
2.20162e-11
0.000551133
-9.69891e-13
0.000551133
1.13818e-11
0.000551133
-6.3179e-12
0.000551133
1.52279e-12
0.000551133
-1.63637e-12
0.000551133
-7.0954e-12
0.000551133
1.06895e-11
0.000551133
-1.01254e-11
0.000551133
7.87397e-12
0.000551133
1.30358e-11
5.86665e-11
0.000519155
0.000519155
0.000519155
0.000519155
0.000519155
0.000519155
0.000519155
0.000519155
0.000519155
0.000519155
0.000519155
0.000519155
0.000519155
0.000519155
0.000519155
0.000519155
0.000519155
0.000519155
0.000519155
)
;

boundaryField
{
    top
    {
        type            calculated;
        value           uniform 0;
    }
    bottom
    {
        type            calculated;
        value           uniform 0;
    }
    inlet
    {
        type            calculated;
        value           nonuniform List<scalar> 
20
(
-4.41549e-05
-0.000126132
-0.000201778
-0.000271092
-0.000334074
-0.000390726
-0.000441047
-0.000485038
-0.000522698
-0.000554029
-0.000579029
-0.000597699
-0.000610039
-0.000616048
-0.000615727
-0.000609075
-0.000596093
-0.000576779
-0.000551133
-0.000519155
)
;
    }
    outlet
    {
        type            calculated;
        value           nonuniform List<scalar> 
20
(
4.41553e-05
0.000126133
0.000201779
0.000271093
0.000334075
0.000390727
0.000441047
0.000485038
0.000522698
0.000554028
0.000579028
0.000597698
0.000610038
0.000616047
0.000615727
0.000609075
0.000596093
0.000576779
0.000551133
0.000519155
)
;
    }
    frontAndBack
    {
        type            empty;
        value           nonuniform 0();
    }
}


// ************************************************************************* //
