/*--------------------------------*- C++ -*----------------------------------*\
| =========                 |                                                 |
| \\      /  F ield         | OpenFOAM: The Open Source CFD Toolbox           |
|  \\    /   O peration     | Version:  v1706                                 |
|   \\  /    A nd           | Web:      www.OpenFOAM.com                      |
|    \\/     M anipulation  |                                                 |
\*---------------------------------------------------------------------------*/
FoamFile
{
    version     2.0;
    format      ascii;
    class       volVectorField;
    location    "1";
    object      U;
}
// * * * * * * * * * * * * * * * * * * * * * * * * * * * * * * * * * * * * * //

dimensions      [0 1 -1 0 0 0 0];


internalField   nonuniform List<vector> 
400
(
(0.883099 -5.00394e-08 0)
(0.883101 -4.32965e-08 0)
(0.883103 -1.37095e-08 0)
(0.883103 5.0332e-10 0)
(0.883103 -9.16324e-11 0)
(0.883103 9.82161e-09 0)
(0.883103 2.99082e-09 0)
(0.883103 9.38378e-09 0)
(0.883103 4.23967e-09 0)
(0.883103 7.17199e-09 0)
(0.883103 2.42272e-09 0)
(0.883103 1.38769e-09 0)
(0.883103 8.35925e-10 0)
(0.883103 -2.81695e-09 0)
(0.883103 3.11292e-09 0)
(0.883103 -3.31214e-09 0)
(0.883103 3.36488e-09 0)
(0.883103 2.19119e-09 0)
(0.883103 -1.04306e-08 0)
(0.883105 -4.19198e-08 0)
(2.52265 -2.01445e-07 0)
(2.52265 -2.0464e-07 0)
(2.52266 -7.43835e-08 0)
(2.52266 -1.38406e-08 0)
(2.52266 -6.0534e-09 0)
(2.52266 2.91002e-08 0)
(2.52266 1.20104e-08 0)
(2.52266 3.16781e-08 0)
(2.52266 1.6407e-08 0)
(2.52266 2.39625e-08 0)
(2.52266 8.56158e-09 0)
(2.52266 4.85755e-09 0)
(2.52266 1.86303e-09 0)
(2.52266 -7.70564e-09 0)
(2.52266 7.70001e-09 0)
(2.52266 -7.24803e-09 0)
(2.52266 7.31194e-09 0)
(2.52266 1.26586e-08 0)
(2.52266 -5.2111e-08 0)
(2.52266 -1.64289e-07 0)
(4.03556 -4.19612e-07 0)
(4.03556 -4.81606e-07 0)
(4.03557 -1.95467e-07 0)
(4.03557 -6.33369e-08 0)
(4.03557 -2.8174e-08 0)
(4.03557 3.83789e-08 0)
(4.03557 2.04794e-08 0)
(4.03557 5.1709e-08 0)
(4.03557 2.87436e-08 0)
(4.03557 3.92448e-08 0)
(4.03557 1.39982e-08 0)
(4.03557 9.37375e-09 0)
(4.03557 1.53063e-09 0)
(4.03557 -8.46276e-09 0)
(4.03557 7.74601e-09 0)
(4.03557 -4.40827e-09 0)
(4.03557 3.92503e-09 0)
(4.03557 3.15421e-08 0)
(4.03557 -1.25299e-07 0)
(4.03558 -3.36629e-07 0)
(5.42183 -6.44295e-07 0)
(5.42184 -8.01308e-07 0)
(5.42185 -3.48495e-07 0)
(5.42185 -1.31809e-07 0)
(5.42185 -5.63602e-08 0)
(5.42185 4.25165e-08 0)
(5.42185 3.34229e-08 0)
(5.42185 7.14394e-08 0)
(5.42185 4.47687e-08 0)
(5.42185 5.28484e-08 0)
(5.42185 2.06021e-08 0)
(5.42185 1.30726e-08 0)
(5.42185 5.85151e-10 0)
(5.42185 -6.81354e-09 0)
(5.42185 3.56594e-09 0)
(5.42185 5.0602e-09 0)
(5.42185 -6.19886e-09 0)
(5.42185 5.7779e-08 0)
(5.42185 -2.05797e-07 0)
(5.42185 -5.14072e-07 0)
(6.68149 -8.32564e-07 0)
(6.68149 -1.09812e-06 0)
(6.6815 -5.0551e-07 0)
(6.6815 -2.04208e-07 0)
(6.6815 -8.39333e-08 0)
(6.6815 4.52419e-08 0)
(6.6815 5.02449e-08 0)
(6.6815 9.07376e-08 0)
(6.6815 6.37668e-08 0)
(6.6815 6.46964e-08 0)
(6.6815 2.88668e-08 0)
(6.6815 1.5326e-08 0)
(6.6815 -1.09164e-11 0)
(6.6815 -4.59109e-09 0)
(6.6815 -3.21041e-09 0)
(6.6815 1.82235e-08 0)
(6.6815 -2.05536e-08 0)
(6.6815 8.60923e-08 0)
(6.6815 -2.73072e-07 0)
(6.6815 -6.65084e-07 0)
(7.81452 -9.59084e-07 0)
(7.81452 -1.32625e-06 0)
(7.81453 -6.39977e-07 0)
(7.81453 -2.6778e-07 0)
(7.81453 -1.05324e-07 0)
(7.81453 4.77634e-08 0)
(7.81453 6.93261e-08 0)
(7.81453 1.08213e-07 0)
(7.81453 8.36256e-08 0)
(7.81453 7.39833e-08 0)
(7.81453 3.76739e-08 0)
(7.81453 1.6018e-08 0)
(7.81453 -4.56648e-10 0)
(7.81453 -2.24734e-09 0)
(7.81453 -1.19319e-08 0)
(7.81453 3.30157e-08 0)
(7.81453 -3.69643e-08 0)
(7.81453 1.10685e-07 0)
(7.81453 -3.16139e-07 0)
(7.81453 -7.70095e-07 0)
(8.82094 -1.01185e-06 0)
(8.82094 -1.4577e-06 0)
(8.82095 -7.31103e-07 0)
(8.82095 -3.11025e-07 0)
(8.82095 -1.15257e-07 0)
(8.82095 5.20981e-08 0)
(8.82095 8.96041e-08 0)
(8.82095 1.2297e-07 0)
(8.82095 1.02803e-07 0)
(8.82095 8.03282e-08 0)
(8.82095 4.64037e-08 0)
(8.82095 1.51407e-08 0)
(8.82095 -6.28702e-10 0)
(8.82095 -3.33101e-10 0)
(8.82095 -2.1429e-08 0)
(8.82095 4.72922e-08 0)
(8.82095 -5.27816e-08 0)
(8.82095 1.27322e-07 0)
(8.82095 -3.31718e-07 0)
(8.82095 -8.18608e-07 0)
(9.70076 -9.88698e-07 0)
(9.70075 -1.4798e-06 0)
(9.70076 -7.64841e-07 0)
(9.70076 -3.25268e-07 0)
(9.70076 -1.096e-07 0)
(9.70076 6.01078e-08 0)
(9.70076 1.10514e-07 0)
(9.70075 1.34564e-07 0)
(9.70076 1.20185e-07 0)
(9.70075 8.35531e-08 0)
(9.70076 5.44844e-08 0)
(9.70075 1.27422e-08 0)
(9.70076 -4.75406e-10 0)
(9.70075 7.62989e-10 0)
(9.70076 -3.05281e-08 0)
(9.70075 5.93535e-08 0)
(9.70076 -6.56418e-08 0)
(9.70075 1.33797e-07 0)
(9.70076 -3.21333e-07 0)
(9.70075 -8.07535e-07 0)
(10.454 -8.96283e-07 0)
(10.454 -1.39488e-06 0)
(10.454 -7.36444e-07 0)
(10.454 -3.06764e-07 0)
(10.454 -8.6779e-08 0)
(10.454 7.26598e-08 0)
(10.454 1.31326e-07 0)
(10.454 1.42628e-07 0)
(10.454 1.34795e-07 0)
(10.454 8.36124e-08 0)
(10.454 6.14049e-08 0)
(10.454 8.97674e-09 0)
(10.454 2.75712e-11 0)
(10.454 8.04424e-10 0)
(10.454 -3.82086e-08 0)
(10.454 6.79709e-08 0)
(10.454 -7.39339e-08 0)
(10.454 1.29859e-07 0)
(10.454 -2.89574e-07 0)
(10.454 -7.40879e-07 0)
(11.0806 -7.48057e-07 0)
(11.0806 -1.21823e-06 0)
(11.0806 -6.5078e-07 0)
(11.0806 -2.57484e-07 0)
(11.0806 -4.84497e-08 0)
(11.0806 8.91075e-08 0)
(11.0806 1.50873e-07 0)
(11.0806 1.46775e-07 0)
(11.0806 1.45773e-07 0)
(11.0806 8.05934e-08 0)
(11.0806 6.67093e-08 0)
(11.0806 4.10159e-09 0)
(11.0806 8.31941e-10 0)
(11.0806 -2.65837e-10 0)
(11.0806 -4.37674e-08 0)
(11.0806 7.25073e-08 0)
(11.0806 -7.7048e-08 0)
(11.0806 1.16941e-07 0)
(11.0806 -2.42555e-07 0)
(11.0806 -6.28417e-07 0)
(11.5806 -5.6209e-07 0)
(11.5806 -9.74843e-07 0)
(11.5806 -5.2118e-07 0)
(11.5806 -1.84867e-07 0)
(11.5806 5.05372e-10 0)
(11.5806 1.07211e-07 0)
(11.5806 1.67425e-07 0)
(11.5806 1.46528e-07 0)
(11.5806 1.52332e-07 0)
(11.5806 7.4686e-08 0)
(11.5806 7.00113e-08 0)
(11.5806 -1.52339e-09 0)
(11.5806 1.83719e-09 0)
(11.5806 -2.30451e-09 0)
(11.5806 -4.68604e-08 0)
(11.5806 7.29336e-08 0)
(11.5806 -7.53316e-08 0)
(11.5806 9.76365e-08 0)
(11.5806 -1.86782e-07 0)
(11.5806 -4.84034e-07 0)
(11.954 -3.5886e-07 0)
(11.954 -6.9569e-07 0)
(11.954 -3.66943e-07 0)
(11.954 -1.00401e-07 0)
(11.954 5.27806e-08 0)
(11.954 1.23531e-07 0)
(11.954 1.78862e-07 0)
(11.954 1.41397e-07 0)
(11.954 1.53809e-07 0)
(11.954 6.62001e-08 0)
(11.954 7.10138e-08 0)
(11.954 -7.43586e-09 0)
(11.954 2.90526e-09 0)
(11.954 -4.96517e-09 0)
(11.954 -4.74801e-08 0)
(11.954 6.97638e-08 0)
(11.954 -6.9851e-08 0)
(11.954 7.51414e-08 0)
(11.954 -1.28396e-07 0)
(11.954 -3.23961e-07 0)
(12.2008 -1.59431e-07 0)
(12.2008 -4.13937e-07 0)
(12.2008 -2.10079e-07 0)
(12.2008 -1.7461e-08 0)
(12.2008 1.0002e-07 0)
(12.2008 1.34194e-07 0)
(12.2008 1.83056e-07 0)
(12.2008 1.31062e-07 0)
(12.2008 1.49745e-07 0)
(12.2008 5.55942e-08 0)
(12.2008 6.9534e-08 0)
(12.2008 -1.30781e-08 0)
(12.2008 3.89072e-09 0)
(12.2008 -7.73191e-09 0)
(12.2008 -4.58674e-08 0)
(12.2008 6.38964e-08 0)
(12.2008 -6.20435e-08 0)
(12.2008 5.27265e-08 0)
(12.2008 -7.28464e-08 0)
(12.2008 -1.65133e-07 0)
(12.321 1.63363e-08 0)
(12.321 -1.61233e-07 0)
(12.321 -7.17676e-08 0)
(12.321 5.12728e-08 0)
(12.321 1.34507e-07 0)
(12.321 1.35884e-07 0)
(12.321 1.78368e-07 0)
(12.321 1.15584e-07 0)
(12.321 1.3999e-07 0)
(12.321 4.35039e-08 0)
(12.321 6.55345e-08 0)
(12.3209 -1.78247e-08 0)
(12.321 4.67821e-09 0)
(12.3209 -9.9964e-09 0)
(12.321 -4.23916e-08 0)
(12.3209 5.64025e-08 0)
(12.321 -5.33442e-08 0)
(12.3209 3.33018e-08 0)
(12.321 -2.47619e-08 0)
(12.3209 -2.3643e-08 0)
(12.3145 1.51264e-07 0)
(12.3145 3.58003e-08 0)
(12.3145 3.11289e-08 0)
(12.3145 9.62902e-08 0)
(12.3145 1.5078e-07 0)
(12.3145 1.26795e-07 0)
(12.3145 1.64133e-07 0)
(12.3145 9.56362e-08 0)
(12.3145 1.24818e-07 0)
(12.3145 3.07786e-08 0)
(12.3145 5.91435e-08 0)
(12.3145 -2.10342e-08 0)
(12.3145 5.20217e-09 0)
(12.3145 -1.11802e-08 0)
(12.3145 -3.74331e-08 0)
(12.3145 4.82809e-08 0)
(12.3145 -4.48433e-08 0)
(12.3145 1.9014e-08 0)
(12.3145 1.20874e-08 0)
(12.3145 8.66753e-08 0)
(12.1815 2.32456e-07 0)
(12.1815 1.5887e-07 0)
(12.1815 8.8962e-08 0)
(12.1815 1.13186e-07 0)
(12.1815 1.46836e-07 0)
(12.1815 1.07275e-07 0)
(12.1815 1.40993e-07 0)
(12.1815 7.26586e-08 0)
(12.1815 1.05025e-07 0)
(12.1815 1.85033e-08 0)
(12.1815 5.06926e-08 0)
(12.1815 -2.21235e-08 0)
(12.1815 5.44617e-09 0)
(12.1815 -1.08876e-08 0)
(12.1815 -3.134e-08 0)
(12.1815 4.02352e-08 0)
(12.1815 -3.70976e-08 0)
(12.1815 1.09225e-08 0)
(12.1815 3.4873e-08 0)
(12.1815 1.55656e-07 0)
(11.9219 2.52791e-07 0)
(11.9219 2.01372e-07 0)
(11.9219 1.01611e-07 0)
(11.9219 1.03772e-07 0)
(11.9219 1.24756e-07 0)
(11.9219 8.03492e-08 0)
(11.9219 1.11107e-07 0)
(11.9219 4.9148e-08 0)
(11.9219 8.19773e-08 0)
(11.9219 8.11466e-09 0)
(11.9219 4.06057e-08 0)
(11.9219 -2.06459e-08 0)
(11.9219 5.30843e-09 0)
(11.9219 -9.08291e-09 0)
(11.9219 -2.44176e-08 0)
(11.9219 3.24368e-08 0)
(11.9219 -2.98902e-08 0)
(11.9219 8.57041e-09 0)
(11.9219 4.21665e-08 0)
(11.9219 1.77853e-07 0)
(11.5356 2.14303e-07 0)
(11.5356 1.72697e-07 0)
(11.5356 7.98273e-08 0)
(11.5356 7.62846e-08 0)
(11.5356 9.134e-08 0)
(11.5356 5.14366e-08 0)
(11.5356 7.86055e-08 0)
(11.5356 2.84965e-08 0)
(11.5356 5.8076e-08 0)
(11.5356 1.21208e-09 0)
(11.5356 2.96684e-08 0)
(11.5356 -1.65716e-08 0)
(11.5356 4.52638e-09 0)
(11.5356 -6.21769e-09 0)
(11.5356 -1.74091e-08 0)
(11.5356 2.47711e-08 0)
(11.5356 -2.29747e-08 0)
(11.5356 9.93042e-09 0)
(11.5356 3.59652e-08 0)
(11.5356 1.54423e-07 0)
(11.0227 1.31873e-07 0)
(11.0227 1.01588e-07 0)
(11.0227 4.30109e-08 0)
(11.0227 4.20046e-08 0)
(11.0227 5.30614e-08 0)
(11.0227 2.62806e-08 0)
(11.0227 4.5844e-08 0)
(11.0227 1.38439e-08 0)
(11.0227 3.42657e-08 0)
(11.0227 -8.67697e-10 0)
(11.0227 1.78441e-08 0)
(11.0227 -1.01207e-08 0)
(11.0227 2.73867e-09 0)
(11.0227 -3.22896e-09 0)
(11.0227 -1.04189e-08 0)
(11.0227 1.56647e-08 0)
(11.0227 -1.46138e-08 0)
(11.0227 9.70336e-09 0)
(11.0227 2.18697e-08 0)
(11.0227 9.66686e-08 0)
(10.3831 4.01938e-08 0)
(10.3831 2.85492e-08 0)
(10.3831 1.04926e-08 0)
(10.3831 1.12786e-08 0)
(10.3831 1.51504e-08 0)
(10.3831 6.3047e-09 0)
(10.3831 1.32532e-08 0)
(10.3831 2.95064e-09 0)
(10.3831 9.9818e-09 0)
(10.3831 -8.92961e-10 0)
(10.3831 5.39938e-09 0)
(10.3831 -3.09892e-09 0)
(10.3831 9.50021e-10 0)
(10.3831 -8.01591e-10 0)
(10.3831 -3.11486e-09 0)
(10.3831 4.93745e-09 0)
(10.3831 -4.92214e-09 0)
(10.3831 4.09223e-09 0)
(10.3831 6.22472e-09 0)
(10.3831 3.00504e-08 0)
)
;

boundaryField
{
    top
    {
        type            fixedValue;
        value           uniform (10 0 0);
    }
    bottom
    {
        type            fixedValue;
        value           uniform (0 0 0);
    }
    inlet
    {
        type            zeroGradient;
    }
    outlet
    {
        type            zeroGradient;
    }
    frontAndBack
    {
        type            empty;
    }
}


// ************************************************************************* //
