/*--------------------------------*- C++ -*----------------------------------*\
| =========                 |                                                 |
| \\      /  F ield         | OpenFOAM: The Open Source CFD Toolbox           |
|  \\    /   O peration     | Version:  v1706                                 |
|   \\  /    A nd           | Web:      www.OpenFOAM.com                      |
|    \\/     M anipulation  |                                                 |
\*---------------------------------------------------------------------------*/
FoamFile
{
    version     2.0;
    format      ascii;
    class       surfaceScalarField;
    location    "0.6";
    object      phi;
}
// * * * * * * * * * * * * * * * * * * * * * * * * * * * * * * * * * * * * * //

dimensions      [0 3 -1 0 0 0 0];
oriented        oriented;


internalField   nonuniform List<scalar> 
760
(
4.40036e-05
7.04758e-10
4.40031e-05
4.63346e-10
4.40034e-05
-2.89841e-10
4.40034e-05
1.76145e-11
4.40034e-05
-5.44423e-11
4.40034e-05
7.22644e-11
4.40034e-05
-3.26867e-11
4.40034e-05
-1.92082e-11
4.40034e-05
-2.51947e-11
4.40034e-05
5.49927e-11
4.40034e-05
-2.05884e-11
4.40034e-05
-1.61321e-12
4.40034e-05
-1.20074e-11
4.40034e-05
4.62302e-11
4.40034e-05
-2.99928e-11
4.40034e-05
2.64547e-12
4.40034e-05
-5.09327e-11
4.40034e-05
5.19482e-11
4.40032e-05
2.46606e-10
-2.17233e-10
0.000125682
2.13027e-09
0.000125681
1.62829e-09
0.000125681
-7.18543e-10
0.000125681
-1.32117e-11
0.000125681
-1.22862e-10
0.000125681
1.1385e-10
0.000125681
-6.38611e-11
0.000125681
-1.25995e-11
0.000125681
-6.33462e-11
0.000125681
9.3399e-11
0.000125681
-4.11717e-11
0.000125681
2.34137e-11
0.000125681
-3.03968e-11
0.000125681
8.77803e-11
0.000125681
-8.32236e-11
0.000125681
6.60991e-11
0.000125681
-1.69881e-10
0.000125681
2.06147e-10
0.000125681
7.22289e-10
-5.39462e-10
0.00020104
3.84851e-09
0.000201038
3.27444e-09
0.000201038
-1.02377e-09
0.000201038
-9.13497e-11
0.000201038
-1.54756e-10
0.000201038
1.22502e-10
0.000201038
-7.2956e-11
0.000201038
4.36878e-12
0.000201038
-9.32699e-11
0.000201038
1.0845e-10
0.000201038
-5.50629e-11
0.000201038
5.46861e-11
0.000201038
-4.691e-11
0.000201038
1.26318e-10
0.000201038
-1.49417e-10
0.000201038
1.71075e-10
0.000201038
-3.41656e-10
0.000201038
4.23349e-10
0.000201038
1.30302e-09
-8.27284e-10
0.000270084
5.57061e-09
0.000270082
5.14846e-09
0.000270082
-1.09157e-09
0.000270082
-1.61914e-10
0.000270082
-1.40677e-10
0.000270082
1.2826e-10
0.000270082
-6.108e-11
0.000270082
2.03124e-11
0.000270082
-1.11228e-10
0.000270082
1.15075e-10
0.000270082
-6.37908e-11
0.000270082
8.05357e-11
0.000270082
-6.23158e-11
0.000270082
1.71811e-10
0.000270082
-2.24159e-10
0.000270082
2.94309e-10
0.000270082
-5.43886e-10
0.000270082
6.50954e-10
0.000270081
1.93777e-09
-1.03781e-09
0.000332821
7.04429e-09
0.000332819
6.97871e-09
0.000332819
-8.87915e-10
0.000332819
-1.78663e-10
0.000332819
-7.69427e-11
0.000332819
1.41314e-10
0.000332819
-3.06522e-11
0.000332819
3.6262e-11
0.000332819
-1.15707e-10
0.000332819
1.16022e-10
0.000332819
-6.69847e-11
0.000332819
1.00472e-10
0.000332819
-7.64889e-11
0.000332819
2.19675e-10
0.000332819
-3.0124e-10
0.000332819
4.22921e-10
0.000332819
-7.47066e-10
0.000332819
8.5238e-10
0.000332818
2.57176e-09
-1.14098e-09
0.000389258
8.07622e-09
0.000389257
8.51556e-09
0.000389256
-4.38039e-10
0.000389256
-1.1506e-10
0.000389256
3.64223e-11
0.000389256
1.68341e-10
0.000389256
1.66705e-11
0.000389256
5.27713e-11
0.000389256
-1.06798e-10
0.000389256
1.1328e-10
0.000389256
-6.43341e-11
0.000389256
1.1398e-10
0.000389256
-8.87096e-11
0.000389256
2.65201e-10
0.000389256
-3.73113e-10
0.000389256
5.42545e-10
0.000389256
-9.2467e-10
0.000389256
1.00312e-09
0.000389255
3.14648e-09
-1.12396e-09
0.000439401
8.54553e-09
0.0004394
9.56044e-09
0.000439399
1.88273e-10
0.000439399
3.2763e-11
0.000439399
1.93408e-10
0.000439399
2.11365e-10
0.000439399
7.83489e-11
0.000439399
6.96606e-11
0.000439399
-8.58223e-11
0.000439399
1.08144e-10
0.000439399
-5.58503e-11
0.000439399
1.20554e-10
0.000439399
-9.77703e-11
0.000439399
3.03695e-10
0.000439399
-4.32062e-10
0.000439398
6.39611e-10
0.000439399
-1.05599e-09
0.000439399
1.09185e-09
0.000439398
3.60685e-09
-9.91493e-10
0.000483253
8.40931e-09
0.000483253
9.98893e-09
0.000483252
8.97526e-10
0.000483252
2.47949e-10
0.000483252
3.8102e-10
0.000483252
2.67386e-10
0.000483251
1.50127e-10
0.000483251
8.5922e-11
0.000483251
-5.52294e-11
0.000483251
1.01203e-10
0.000483251
-4.19505e-11
0.000483251
1.19823e-10
0.000483251
-1.02346e-10
0.000483251
3.30909e-10
0.000483251
-4.71355e-10
0.000483251
7.03433e-10
0.000483251
-1.12817e-09
0.000483251
1.11828e-09
0.000483251
3.90818e-09
-7.63053e-10
0.000520819
7.70034e-09
0.000520819
9.76337e-09
0.000520819
1.59312e-09
0.000520818
4.98686e-10
0.000520818
5.80084e-10
0.000520818
3.28937e-10
0.000520818
2.25773e-10
0.000520818
9.97113e-11
0.000520818
-1.83917e-11
0.000520818
9.25112e-11
0.000520818
-2.35486e-11
0.000520818
1.1164e-10
0.000520818
-1.01371e-10
0.000520818
3.43637e-10
0.000520818
-4.86313e-10
0.000520818
7.27698e-10
0.000520818
-1.13675e-09
0.000520818
1.08991e-09
0.000520818
4.02152e-09
-4.68448e-10
0.000552101
6.51761e-09
0.000552102
8.93322e-09
0.000552102
2.192e-09
0.000552101
7.45984e-10
0.000552101
7.67671e-10
0.000552101
3.85538e-10
0.000552101
2.97492e-10
0.000552101
1.08611e-10
0.000552101
2.06909e-11
0.000552101
8.18071e-11
0.000552101
-2.07587e-12
0.000552101
9.62417e-11
0.000552101
-9.43709e-11
0.000552101
3.40244e-10
0.000552101
-4.7507e-10
0.000552101
7.11155e-10
0.000552101
-1.08503e-09
0.000552101
1.01835e-09
0.000552101
3.93672e-09
-1.42867e-10
0.000577101
5.01093e-09
0.000577102
7.62372e-09
0.000577102
2.63482e-09
0.000577101
9.51374e-10
0.000577101
9.20494e-10
0.000577101
4.25821e-10
0.000577101
3.56919e-10
0.000577101
1.10134e-10
0.000577101
5.77896e-11
0.000577101
6.88077e-11
0.000577101
2.05924e-11
0.000577101
7.43975e-11
0.000577101
-8.16901e-11
0.000577101
3.20971e-10
0.000577101
-4.3883e-10
0.000577101
6.57419e-10
0.000577101
-9.82447e-10
0.000577101
9.16181e-10
0.000577101
3.66293e-09
1.77756e-10
0.000595818
3.36137e-09
0.000595819
6.01487e-09
0.000595819
2.889e-09
0.000595819
1.08305e-09
0.000595819
1.01846e-09
0.000595819
4.39947e-10
0.000595819
3.96453e-10
0.000595819
1.02403e-10
0.000595819
8.89137e-11
0.000595819
5.35133e-11
0.000595819
4.23048e-11
0.000595819
4.75239e-11
0.000595819
-6.45521e-11
0.000595819
2.87966e-10
0.000595819
-3.81637e-10
0.000595819
5.74065e-10
0.000595819
-8.42714e-10
0.000595819
7.94819e-10
0.000595819
3.22712e-09
4.60595e-10
0.000608251
1.75936e-09
0.000608253
4.31372e-09
0.000608253
2.94599e-09
0.000608253
1.11991e-09
0.000608253
1.04771e-09
0.000608253
4.21851e-10
0.000608253
4.10641e-10
0.000608253
8.48283e-11
0.000608253
1.10776e-10
0.000608253
3.64696e-11
0.000608253
6.08706e-11
0.000608253
1.77234e-11
0.000608253
-4.49419e-11
0.000608253
2.44994e-10
0.000608253
-3.09717e-10
0.000608253
4.7126e-10
0.000608253
-6.81778e-10
0.000608253
6.63618e-10
0.000608253
2.67106e-09
6.78769e-10
0.000614398
3.82187e-10
0.0006144
2.72362e-09
0.0006144
2.81482e-09
0.0006144
1.0538e-09
0.0006144
1.00276e-09
0.0006144
3.70945e-10
0.0006144
3.97252e-10
0.0006144
5.86266e-11
0.0006144
1.21162e-10
0.0006144
1.8934e-11
0.0006144
7.43272e-11
0.0006144
-1.22754e-11
0.0006144
-2.53407e-11
0.0006144
1.96904e-10
0.0006144
-2.30587e-10
0.0006144
3.60193e-10
0.0006144
-5.16025e-10
0.0006144
5.2997e-10
0.000614401
2.04748e-09
8.13196e-10
0.000614256
-6.27987e-10
0.000614257
1.4139e-09
0.000614257
2.5153e-09
0.000614257
8.9092e-10
0.000614257
8.87552e-10
0.000614258
2.9299e-10
0.000614258
3.57795e-10
0.000614258
2.69769e-11
0.000614258
1.19125e-10
0.000614258
2.91904e-12
0.000614258
8.1195e-11
0.000614258
-3.92814e-11
0.000614258
-8.38078e-12
0.000614258
1.48935e-10
0.000614258
-1.52096e-10
0.000614258
2.51551e-10
0.000614258
-3.60663e-10
0.000614258
4.00154e-10
0.000614258
1.41578e-09
8.53608e-10
0.000607819
-1.18405e-09
0.000607819
4.93441e-10
0.00060782
2.0738e-09
0.00060782
6.5311e-10
0.00060782
7.1537e-10
0.00060782
1.99978e-10
0.00060782
2.97236e-10
0.00060782
-5.25711e-12
0.000607821
1.04955e-10
0.000607821
-8.90242e-12
0.000607821
8.06685e-11
0.000607821
-5.9863e-11
0.000607821
3.51621e-12
0.000607821
1.05967e-10
0.000607821
-8.16376e-11
0.000607821
1.54226e-10
0.00060782
-2.28208e-10
0.000607821
2.80486e-10
0.000607821
8.37792e-10
7.98932e-10
0.000595082
-1.27148e-09
0.000595082
-8.75087e-12
0.000595083
1.5246e-09
0.000595083
3.79558e-10
0.000595083
5.07483e-10
0.000595083
1.0904e-10
0.000595083
2.22831e-10
0.000595083
-3.22876e-11
0.000595083
8.00047e-11
0.000595083
-1.33314e-11
0.000595083
7.26829e-11
0.000595083
-7.06578e-11
0.000595083
8.47464e-12
0.000595083
7.18205e-11
0.000595083
-2.56995e-11
0.000595083
7.44818e-11
0.000595083
-1.26947e-10
0.000595083
1.7825e-10
0.000595084
3.73841e-10
6.57361e-10
0.000576038
-9.62096e-10
0.000576038
-1.54332e-10
0.000576039
9.1683e-10
0.000576039
1.27691e-10
0.000576039
2.89907e-10
0.000576039
4.04554e-11
0.000576039
1.42294e-10
0.000576039
-4.84944e-11
0.000576039
4.61579e-11
0.000576039
-6.79426e-12
0.00057604
5.81758e-11
0.00057604
-6.85382e-11
0.00057604
5.10146e-12
0.00057604
4.84944e-11
0.000576039
1.0457e-11
0.00057604
1.55123e-11
0.000576039
-5.98744e-11
0.00057604
1.02381e-10
0.00057604
7.93461e-11
4.45915e-10
0.000550681
-4.13511e-10
0.000550681
-7.96319e-11
0.000550682
3.42e-10
0.000550682
-1.62441e-11
0.000550682
9.23769e-11
0.000550682
1.61168e-11
0.000550682
6.33291e-11
0.000550682
-4.65111e-11
0.000550682
6.73444e-12
0.000550682
1.29716e-11
0.000550682
3.72681e-11
0.000550682
-5.09026e-11
0.000550682
-6.78926e-12
0.000550682
3.66588e-11
0.000550682
2.31464e-11
0.000550682
-2.12248e-11
0.000550682
-2.72087e-11
0.000550682
4.59422e-11
0.000550682
-8.58752e-12
1.91519e-10
0.000519003
0.000519003
0.000519004
0.000519004
0.000519004
0.000519004
0.000519004
0.000519004
0.000519004
0.000519004
0.000519004
0.000519004
0.000519004
0.000519004
0.000519004
0.000519004
0.000519004
0.000519004
0.000519004
)
;

boundaryField
{
    top
    {
        type            calculated;
        value           uniform 0;
    }
    bottom
    {
        type            calculated;
        value           uniform 0;
    }
    inlet
    {
        type            calculated;
        value           nonuniform List<scalar> 
20
(
-4.40043e-05
-0.000125683
-0.000201041
-0.000270085
-0.000332822
-0.000389259
-0.000439401
-0.000483253
-0.000520818
-0.0005521
-0.000577099
-0.000595816
-0.000608249
-0.000614397
-0.000614255
-0.000607818
-0.000595081
-0.000576038
-0.000550682
-0.000519004
)
;
    }
    outlet
    {
        type            calculated;
        value           nonuniform List<scalar> 
20
(
4.40034e-05
0.000125681
0.000201038
0.000270081
0.000332818
0.000389255
0.000439398
0.000483251
0.000520818
0.000552101
0.000577101
0.000595819
0.000608253
0.000614401
0.000614258
0.000607821
0.000595084
0.00057604
0.000550683
0.000519004
)
;
    }
    frontAndBack
    {
        type            empty;
        value           nonuniform 0();
    }
}


// ************************************************************************* //
