/*--------------------------------*- C++ -*----------------------------------*\
| =========                 |                                                 |
| \\      /  F ield         | OpenFOAM: The Open Source CFD Toolbox           |
|  \\    /   O peration     | Version:  v1706                                 |
|   \\  /    A nd           | Web:      www.OpenFOAM.com                      |
|    \\/     M anipulation  |                                                 |
\*---------------------------------------------------------------------------*/
FoamFile
{
    version     2.0;
    format      ascii;
    class       volVectorField;
    location    "0.6";
    object      U;
}
// * * * * * * * * * * * * * * * * * * * * * * * * * * * * * * * * * * * * * //

dimensions      [0 1 -1 0 0 0 0];


internalField   nonuniform List<vector> 
400
(
(0.880082 3.17015e-07 0)
(0.880064 1.67333e-07 0)
(0.880064 -1.69638e-07 0)
(0.880069 1.47567e-08 0)
(0.880068 -2.79343e-08 0)
(0.880068 3.30034e-08 0)
(0.880069 -2.17512e-08 0)
(0.880068 -7.28685e-09 0)
(0.880069 -1.06535e-08 0)
(0.880068 2.51515e-08 0)
(0.880069 -1.1684e-08 0)
(0.880067 1.14358e-09 0)
(0.880069 -3.89063e-09 0)
(0.880067 1.96626e-08 0)
(0.880069 -1.4384e-08 0)
(0.880068 -2.99722e-10 0)
(0.880068 -1.47177e-08 0)
(0.88007 2.88196e-08 0)
(0.880065 1.09943e-07 0)
(0.880066 -1.13104e-07 0)
(2.51366 1.30822e-06 0)
(2.51362 9.15402e-07 0)
(2.51362 -5.04476e-07 0)
(2.51363 1.77771e-08 0)
(2.51363 -9.27899e-08 0)
(2.51363 9.8413e-08 0)
(2.51363 -4.62189e-08 0)
(2.51363 -1.67318e-08 0)
(2.51363 -4.76984e-08 0)
(2.51363 7.56169e-08 0)
(2.51363 -2.84525e-08 0)
(2.51363 9.60701e-09 0)
(2.51363 -2.30333e-08 0)
(2.51363 6.57461e-08 0)
(2.51363 -4.95137e-08 0)
(2.51363 2.55412e-08 0)
(2.51363 -1.01587e-07 0)
(2.51363 1.03467e-07 0)
(2.51362 4.47239e-07 0)
(2.51362 -3.74063e-07 0)
(4.02082 2.93831e-06 0)
(4.02077 2.34177e-06 0)
(4.02076 -9.2792e-07 0)
(4.02077 -4.94906e-08 0)
(4.02077 -1.45076e-07 0)
(4.02077 1.19326e-07 0)
(4.02077 -7.56233e-08 0)
(4.02076 -5.41538e-09 0)
(4.02077 -7.81244e-08 0)
(4.02076 1.03399e-07 0)
(4.02077 -5.04057e-08 0)
(4.02076 3.83378e-08 0)
(4.02077 -3.67735e-08 0)
(4.02076 1.05343e-07 0)
(4.02077 -1.13799e-07 0)
(4.02076 1.11308e-07 0)
(4.02077 -2.41848e-07 0)
(4.02077 3.15011e-07 0)
(4.02076 9.85089e-07 0)
(4.02076 -6.97282e-07 0)
(5.4017 4.73367e-06 0)
(5.40165 4.1778e-06 0)
(5.40163 -1.12462e-06 0)
(5.40164 -1.35673e-07 0)
(5.40164 -1.5998e-07 0)
(5.40164 1.24454e-07 0)
(5.40164 -7.12806e-08 0)
(5.40163 1.34877e-08 0)
(5.40164 -1.06285e-07 0)
(5.40163 1.12556e-07 0)
(5.40164 -6.00097e-08 0)
(5.40163 6.96304e-08 0)
(5.40164 -5.55461e-08 0)
(5.40163 1.47291e-07 0)
(5.40164 -1.84359e-07 0)
(5.40163 2.28813e-07 0)
(5.40164 -4.37838e-07 0)
(5.40164 5.38444e-07 0)
(5.40163 1.61117e-06 0)
(5.40162 -9.56849e-07 0)
(6.65644 6.39769e-06 0)
(6.6564 6.10565e-06 0)
(6.65637 -1.05984e-06 0)
(6.65638 -1.91316e-07 0)
(6.65638 -1.22381e-07 0)
(6.65638 1.31791e-07 0)
(6.65638 -5.06646e-08 0)
(6.65637 2.84524e-08 0)
(6.65638 -1.1701e-07 0)
(6.65637 1.16572e-07 0)
(6.65639 -6.67819e-08 0)
(6.65637 9.22858e-08 0)
(6.65639 -6.99519e-08 0)
(6.65637 1.95499e-07 0)
(6.65639 -2.62898e-07 0)
(6.65637 3.58535e-07 0)
(6.65638 -6.47513e-07 0)
(6.65638 7.63078e-07 0)
(6.65637 2.26317e-06 0)
(6.65636 -1.11969e-06 0)
(7.78518 7.69014e-06 0)
(7.78515 7.85023e-06 0)
(7.78512 -7.16384e-07 0)
(7.78513 -1.72433e-07 0)
(7.78512 -3.32935e-08 0)
(7.78512 1.50536e-07 0)
(7.78513 -1.12885e-08 0)
(7.78511 4.44876e-08 0)
(7.78513 -1.14464e-07 0)
(7.78511 1.15181e-07 0)
(7.78513 -6.71116e-08 0)
(7.78511 1.09068e-07 0)
(7.78513 -8.33399e-08 0)
(7.78511 2.4342e-07 0)
(7.78513 -3.39426e-07 0)
(7.78511 4.86207e-07 0)
(7.78512 -8.44016e-07 0)
(7.78512 9.42542e-07 0)
(7.78512 2.88236e-06 0)
(7.7851 -1.16181e-06 0)
(8.78802 8.46041e-06 0)
(8.78801 9.18423e-06 0)
(8.78798 -1.5335e-07 0)
(8.78798 -6.44677e-08 0)
(8.78798 1.04096e-07 0)
(8.78797 1.85708e-07 0)
(8.78798 4.40547e-08 0)
(8.78796 6.12323e-08 0)
(8.78798 -9.8992e-08 0)
(8.78796 1.11047e-07 0)
(8.78798 -6.15218e-08 0)
(8.78796 1.19154e-07 0)
(8.78798 -9.43225e-08 0)
(8.78796 2.86704e-07 0)
(8.78798 -4.06736e-07 0)
(8.78796 5.97592e-07 0)
(8.78798 -1.00266e-06 0)
(8.78797 1.06249e-06 0)
(8.78797 3.4127e-06 0)
(8.78796 -1.0825e-06 0)
(9.66505 8.62728e-06 0)
(9.66507 9.94261e-06 0)
(9.66504 5.41763e-07 0)
(9.66504 1.24517e-07 0)
(9.66504 2.80449e-07 0)
(9.66503 2.36617e-07 0)
(9.66504 1.12122e-07 0)
(9.66502 7.82167e-08 0)
(9.66504 -7.24409e-08 0)
(9.66502 1.0492e-07 0)
(9.66504 -5.02247e-08 0)
(9.66501 1.22206e-07 0)
(9.66504 -1.01472e-07 0)
(9.66501 3.20573e-07 0)
(9.66504 -4.5742e-07 0)
(9.66501 6.80258e-07 0)
(9.66504 -1.10653e-06 0)
(9.66502 1.11787e-06 0)
(9.66504 3.80285e-06 0)
(9.66502 -8.94759e-07 0)
(10.4164 8.18728e-06 0)
(10.4164 1.00425e-05 0)
(10.4164 1.2685e-06 0)
(10.4164 3.68001e-07 0)
(10.4164 4.79356e-07 0)
(10.4164 2.97829e-07 0)
(10.4164 1.87683e-07 0)
(10.4164 9.38173e-08 0)
(10.4164 -3.77635e-08 0)
(10.4163 9.71711e-08 0)
(10.4164 -3.38186e-08 0)
(10.4163 1.17772e-07 0)
(10.4164 -1.03504e-07 0)
(10.4163 3.41241e-07 0)
(10.4164 -4.85452e-07 0)
(10.4163 7.25278e-07 0)
(10.4164 -1.14702e-06 0)
(10.4163 1.11366e-06 0)
(10.4164 4.01485e-06 0)
(10.4164 -6.24485e-07 0)
(11.042 7.20938e-06 0)
(11.0421 9.49113e-06 0)
(11.042 1.93363e-06 0)
(11.042 6.28348e-07 0)
(11.042 6.78957e-07 0)
(11.042 3.59878e-07 0)
(11.042 2.63538e-07 0)
(11.042 1.05831e-07 0)
(11.042 1.27216e-09 0)
(11.042 8.75936e-08 0)
(11.042 -1.34824e-08 0)
(11.042 1.05878e-07 0)
(11.042 -9.95599e-08 0)
(11.042 3.4614e-07 0)
(11.042 -4.87423e-07 0)
(11.042 7.2883e-07 0)
(11.042 -1.12387e-06 0)
(11.042 1.06028e-06 0)
(11.042 4.02873e-06 0)
(11.042 -3.05348e-07 0)
(11.542 5.8225e-06 0)
(11.5421 8.38049e-06 0)
(11.542 2.46445e-06 0)
(11.542 8.6485e-07 0)
(11.542 8.55155e-07 0)
(11.542 4.11228e-07 0)
(11.542 3.31279e-07 0)
(11.542 1.11652e-07 0)
(11.542 4.04376e-08 0)
(11.542 7.58293e-08 0)
(11.542 9.09371e-09 0)
(11.542 8.6995e-08 0)
(11.542 -8.95296e-08 0)
(11.542 3.34521e-07 0)
(11.542 -4.63004e-07 0)
(11.542 6.92255e-07 0)
(11.542 -1.04391e-06 0)
(11.542 9.70496e-07 0)
(11.542 3.84425e-06 0)
(11.542 2.60621e-08 0)
(11.9163 4.19737e-06 0)
(11.9164 6.8698e-06 0)
(11.9164 2.81545e-06 0)
(11.9164 1.04096e-06 0)
(11.9164 9.85321e-07 0)
(11.9164 4.40644e-07 0)
(11.9164 3.82547e-07 0)
(11.9164 1.08913e-07 0)
(11.9164 7.54963e-08 0)
(11.9164 6.16573e-08 0)
(11.9164 3.18411e-08 0)
(11.9164 6.21941e-08 0)
(11.9164 -7.42033e-08 0)
(11.9164 3.07615e-07 0)
(11.9164 -4.14945e-07 0)
(11.9164 6.2146e-07 0)
(11.9164 -9.19239e-07 0)
(11.9164 8.56635e-07 0)
(11.9164 3.48018e-06 0)
(11.9164 3.34613e-07 0)
(12.165 2.5253e-06 0)
(12.1651 5.16044e-06 0)
(12.1651 2.96784e-06 0)
(12.1651 1.12942e-06 0)
(12.1651 1.05175e-06 0)
(12.165 4.39644e-07 0)
(12.1651 4.1047e-07 0)
(12.165 9.62123e-08 0)
(12.1651 1.02691e-07 0)
(12.165 4.52921e-08 0)
(12.1651 5.2519e-08 0)
(12.165 3.32398e-08 0)
(12.1651 -5.52398e-08 0)
(12.165 2.68489e-07 0)
(12.1651 -3.48591e-07 0)
(12.165 5.25701e-07 0)
(12.1651 -7.65125e-07 0)
(12.165 7.2907e-07 0)
(12.1651 2.97188e-06 0)
(12.1651 5.89975e-07 0)
(12.2879 9.95412e-07 0)
(12.288 3.4657e-06 0)
(12.288 2.92442e-06 0)
(12.288 1.11528e-06 0)
(12.288 1.04434e-06 0)
(12.288 4.04575e-07 0)
(12.288 4.11011e-07 0)
(12.288 7.37581e-08 0)
(12.288 1.19187e-07 0)
(12.288 2.76217e-08 0)
(12.288 6.89959e-08 0)
(12.288 2.55792e-09 0)
(12.288 -3.49709e-08 0)
(12.288 2.21628e-07 0)
(12.288 -2.71035e-07 0)
(12.288 4.16055e-07 0)
(12.288 -5.98151e-07 0)
(12.288 5.95883e-07 0)
(12.288 2.36775e-06 0)
(12.288 7.69013e-07 0)
(12.2851 -2.27432e-07 0)
(12.2851 1.97926e-06 0)
(12.2851 2.7015e-06 0)
(12.2851 9.97253e-07 0)
(12.2852 9.62303e-07 0)
(12.2851 3.37841e-07 0)
(12.2852 3.83772e-07 0)
(12.2851 4.37966e-08 0)
(12.2852 1.23469e-07 0)
(12.2851 1.01865e-08 0)
(12.2852 7.94554e-08 0)
(12.2851 -2.67879e-08 0)
(12.2852 -1.59691e-08 0)
(12.2851 1.72203e-07 0)
(12.2852 -1.90312e-07 0)
(12.2851 3.03841e-07 0)
(12.2852 -4.34381e-07 0)
(12.2851 4.63487e-07 0)
(12.2852 1.72464e-06 0)
(12.2852 8.57136e-07 0)
(12.1564 -1.02397e-06 0)
(12.1564 8.46751e-07 0)
(12.1564 2.32319e-06 0)
(12.1564 7.88482e-07 0)
(12.1564 8.14338e-07 0)
(12.1564 2.48435e-07 0)
(12.1564 3.32163e-07 0)
(12.1564 1.03232e-08 0)
(12.1564 1.15284e-07 0)
(12.1564 -4.54434e-09 0)
(12.1564 8.27109e-08 0)
(12.1564 -5.16019e-08 0)
(12.1564 -7.9511e-10 0)
(12.1564 1.25571e-07 0)
(12.1564 -1.14117e-07 0)
(12.1564 1.99076e-07 0)
(12.1564 -2.88048e-07 0)
(12.1564 3.37835e-07 0)
(12.1564 1.10407e-06 0)
(12.1564 8.48869e-07 0)
(11.9016 -1.33289e-06 0)
(11.9016 1.41435e-07 0)
(11.9016 1.81214e-06 0)
(11.9017 5.17905e-07 0)
(11.9017 6.16677e-07 0)
(11.9017 1.51185e-07 0)
(11.9017 2.62635e-07 0)
(11.9017 -2.08689e-08 0)
(11.9017 9.45494e-08 0)
(11.9017 -1.3699e-08 0)
(11.9017 7.88795e-08 0)
(11.9017 -6.77007e-08 0)
(11.9017 7.59532e-09 0)
(11.9017 8.59461e-08 0)
(11.9017 -4.88322e-08 0)
(11.9017 1.08639e-07 0)
(11.9017 -1.70866e-07 0)
(11.9016 2.26585e-07 0)
(11.9017 5.67748e-07 0)
(11.9017 7.45429e-07 0)
(11.5208 -1.18969e-06 0)
(11.5208 -1.50582e-07 0)
(11.5208 1.22397e-06 0)
(11.5208 2.41642e-07 0)
(11.5208 3.95847e-07 0)
(11.5208 6.65993e-08 0)
(11.5208 1.79937e-07 0)
(11.5208 -4.28661e-08 0)
(11.5208 6.54852e-08 0)
(11.5208 -1.29882e-08 0)
(11.5208 6.4984e-08 0)
(11.5208 -7.22581e-08 0)
(11.5208 1.00893e-08 0)
(11.5208 5.72949e-08 0)
(11.5208 -3.34092e-09 0)
(11.5208 4.1504e-08 0)
(11.5208 -8.29546e-08 0)
(11.5208 1.32796e-07 0)
(11.5208 1.8301e-07 0)
(11.5208 5.61081e-07 0)
(11.0136 -7.0598e-07 0)
(11.0136 -1.54226e-07 0)
(11.0136 5.91521e-07 0)
(11.0136 2.25754e-08 0)
(11.0136 1.77514e-07 0)
(11.0136 2.14473e-08 0)
(11.0136 1.0149e-07 0)
(11.0136 -5.42418e-08 0)
(11.0136 2.26374e-08 0)
(11.0136 4.10616e-09 0)
(11.0136 5.13934e-08 0)
(11.0136 -6.37314e-08 0)
(11.0136 -2.62381e-09 0)
(11.0136 4.23134e-08 0)
(11.0136 2.41261e-08 0)
(11.0136 -1.28317e-08 0)
(11.0136 -4.16158e-08 0)
(11.0136 7.57823e-08 0)
(11.0136 -3.81168e-09 0)
(11.0136 3.12606e-07 0)
(10.3801 -2.23604e-07 0)
(10.3801 -4.0283e-08 0)
(10.3801 1.81442e-07 0)
(10.3801 -1.63396e-08 0)
(10.3801 4.54011e-08 0)
(10.3801 -2.36765e-10 0)
(10.3801 2.71324e-08 0)
(10.3801 -1.99362e-08 0)
(10.3801 7.18635e-09 0)
(10.3801 5.74873e-10 0)
(10.3801 1.48445e-08 0)
(10.3801 -2.21854e-08 0)
(10.3801 5.35748e-10 0)
(10.3801 1.39512e-08 0)
(10.3801 1.09948e-08 0)
(10.3801 -7.78427e-09 0)
(10.3801 -5.8361e-09 0)
(10.3801 1.42578e-08 0)
(10.3801 -2.30862e-08 0)
(10.3801 1.01765e-07 0)
)
;

boundaryField
{
    top
    {
        type            fixedValue;
        value           uniform (10 0 0);
    }
    bottom
    {
        type            fixedValue;
        value           uniform (0 0 0);
    }
    inlet
    {
        type            zeroGradient;
    }
    outlet
    {
        type            zeroGradient;
    }
    frontAndBack
    {
        type            empty;
    }
}


// ************************************************************************* //
