/*--------------------------------*- C++ -*----------------------------------*\
| =========                 |                                                 |
| \\      /  F ield         | OpenFOAM: The Open Source CFD Toolbox           |
|  \\    /   O peration     | Version:  v1706                                 |
|   \\  /    A nd           | Web:      www.OpenFOAM.com                      |
|    \\/     M anipulation  |                                                 |
\*---------------------------------------------------------------------------*/
FoamFile
{
    version     2.0;
    format      ascii;
    class       surfaceScalarField;
    location    "1.5";
    object      phi;
}
// * * * * * * * * * * * * * * * * * * * * * * * * * * * * * * * * * * * * * //

dimensions      [0 3 -1 0 0 0 0];
oriented        oriented;


internalField   nonuniform List<scalar> 
760
(
4.41625e-05
-1.71574e-11
4.41626e-05
-1.46937e-11
4.41626e-05
6.29183e-13
4.41626e-05
-8.54279e-12
4.41626e-05
7.4481e-12
4.41626e-05
-4.75776e-12
4.41626e-05
7.23425e-12
4.41626e-05
4.89354e-13
4.41626e-05
4.79206e-12
4.41626e-05
6.50683e-12
4.41626e-05
3.52559e-12
4.41626e-05
1.10813e-11
4.41626e-05
5.26054e-12
4.41626e-05
1.38673e-11
4.41626e-05
1.08443e-11
4.41626e-05
1.61625e-11
4.41626e-05
1.8169e-11
4.41626e-05
1.83526e-11
4.41626e-05
1.68162e-11
8.62251e-12
0.000126155
-5.24056e-11
0.000126155
-5.15331e-11
0.000126155
-9.40613e-12
0.000126155
-1.90894e-11
0.000126155
1.07761e-11
0.000126155
-7.68771e-12
0.000126155
1.34247e-11
0.000126155
3.19204e-12
0.000126155
1.09766e-11
0.000126155
1.47649e-11
0.000126155
1.03e-11
0.000126155
2.44e-11
0.000126155
1.53357e-11
0.000126155
3.15705e-11
0.000126155
2.73316e-11
0.000126155
3.88074e-11
0.000126155
4.2164e-11
0.000126155
4.60243e-11
0.000126155
3.13465e-11
4.78301e-12
0.000201814
-9.24853e-11
0.000201815
-9.98389e-11
0.000201815
-2.70527e-11
0.000201815
-3.07094e-11
0.000201815
1.04974e-11
0.000201815
-8.96779e-12
0.000201815
1.79249e-11
0.000201815
7.71557e-12
0.000201815
1.73329e-11
0.000201815
2.4297e-11
0.000201815
1.91098e-11
0.000201815
3.86608e-11
0.000201815
2.86939e-11
0.000201815
5.09367e-11
0.000201815
4.78606e-11
0.000201815
6.507e-11
0.000201815
7.0096e-11
0.000201815
7.98447e-11
0.000201815
4.47102e-11
-3.27594e-12
0.000271142
-1.30024e-10
0.000271142
-1.49499e-10
0.000271142
-4.84234e-11
0.000271142
-4.18654e-11
0.000271142
7.46628e-12
0.000271142
-8.5494e-12
0.000271142
2.08215e-11
0.000271142
1.36612e-11
0.000271142
2.36394e-11
0.000271142
3.44441e-11
0.000271142
2.93569e-11
0.000271142
5.3047e-11
0.000271142
4.44266e-11
0.000271142
7.08994e-11
0.000271142
7.10541e-11
0.000271142
9.33579e-11
0.000271142
1.0037e-10
0.000271142
1.17603e-10
0.000271142
5.95587e-11
-1.00703e-11
0.000334136
-1.59337e-10
0.000334136
-1.92241e-10
0.000334136
-6.92033e-11
0.000334136
-5.18602e-11
0.000334136
3.07284e-12
0.000334136
-7.43118e-12
0.000334136
2.23071e-11
0.000334136
1.96806e-11
0.000334136
2.89483e-11
0.000334136
4.37641e-11
0.000334136
3.89743e-11
0.000334136
6.58396e-11
0.000334136
5.94832e-11
0.000334136
8.87518e-11
0.000334136
9.29034e-11
0.000334136
1.19348e-10
0.000334136
1.28235e-10
0.000334136
1.52864e-10
0.000334136
7.37386e-11
-1.4739e-11
0.000390798
-1.76972e-10
0.000390798
-2.22103e-10
0.000390798
-8.56335e-11
0.000390798
-5.91074e-11
0.000390798
-1.4356e-12
0.000390798
-5.52271e-12
0.000390798
2.27819e-11
0.000390798
2.54952e-11
0.000390798
3.32174e-11
0.000390798
5.19272e-11
0.000390798
4.75718e-11
0.000390798
7.66114e-11
0.000390798
7.31712e-11
0.000390798
1.03877e-10
0.000390798
1.12521e-10
0.000390798
1.41943e-10
0.000390798
1.52901e-10
0.000390798
1.83787e-10
0.000390798
8.79241e-11
-1.47915e-11
0.000441127
-1.81385e-10
0.000441128
-2.35632e-10
0.000441128
-9.48998e-11
0.000441128
-6.23502e-11
0.000441128
-4.98476e-12
0.000441128
-2.77112e-12
0.000441128
2.26009e-11
0.000441128
3.08361e-11
0.000441128
3.6375e-11
0.000441128
5.86136e-11
0.000441128
5.47211e-11
0.000441128
8.49932e-11
0.000441128
8.47754e-11
0.000441128
1.15684e-10
0.000441128
1.28985e-10
0.000441128
1.60006e-10
0.000441128
1.73459e-10
0.000441128
2.08587e-10
0.000441128
1.01702e-10
-9.50317e-12
0.000485125
-1.72843e-10
0.000485125
-2.31962e-10
0.000485125
-9.55206e-11
0.000485125
-6.07868e-11
0.000485125
-6.83031e-12
0.000485125
9.10876e-13
0.000485125
2.20541e-11
0.000485125
3.55688e-11
0.000485125
3.84364e-11
0.000485125
6.36626e-11
0.000485125
6.02111e-11
0.000485125
9.08078e-11
0.000485125
9.39058e-11
0.000485125
1.23884e-10
0.000485125
1.41794e-10
0.000485125
1.72954e-10
0.000485125
1.89433e-10
0.000485125
2.26309e-10
0.000485125
1.14478e-10
9.97657e-13
0.000522789
-1.52973e-10
0.000522789
-2.12457e-10
0.000522789
-8.74702e-11
0.000522789
-5.43426e-11
0.000522789
-6.63806e-12
0.000522789
5.47289e-12
0.000522789
2.13292e-11
0.000522789
3.95831e-11
0.000522789
3.94272e-11
0.000522789
6.69888e-11
0.000522789
6.39099e-11
0.000522789
9.3984e-11
0.000522789
1.00309e-10
0.000522789
1.28341e-10
0.000522789
1.50627e-10
0.000522789
1.80453e-10
0.000522789
2.00474e-10
0.000522789
2.3652e-10
0.000522789
1.25492e-10
1.57711e-11
0.000554122
-1.24445e-10
0.000554122
-1.80304e-10
0.000554122
-7.21001e-11
0.000554122
-4.37285e-11
0.000554122
-4.54875e-12
0.000554122
1.06687e-11
0.000554122
2.0472e-11
0.000554122
4.27394e-11
0.000554122
3.93472e-11
0.000554122
6.85327e-11
0.000554122
6.57177e-11
0.000554122
9.45001e-11
0.000554122
1.03799e-10
0.000554122
1.28986e-10
0.000554122
1.55235e-10
0.000554122
1.82451e-10
0.000554122
2.06221e-10
0.000554122
2.39116e-10
0.000554122
1.33842e-10
3.31863e-11
0.000579122
-9.05786e-11
0.000579122
-1.3993e-10
0.000579122
-5.18445e-11
0.000579122
-3.03463e-11
0.000579122
-1.12164e-12
0.000579122
1.60543e-11
0.000579122
1.94071e-11
0.000579122
4.49004e-11
0.000579122
3.81807e-11
0.000579122
6.8265e-11
0.000579122
6.55706e-11
0.000579122
9.23924e-11
0.000579122
1.0426e-10
0.000579122
1.25973e-10
0.000579122
1.55453e-10
0.000579122
1.78993e-10
0.000579122
2.06349e-10
0.000579122
2.34231e-10
0.000579122
1.38671e-10
5.11983e-11
0.000597789
-5.4986e-11
0.000597789
-9.64084e-11
0.000597789
-2.97936e-11
0.000597789
-1.60486e-11
0.000597789
2.79247e-12
0.000597789
2.10423e-11
0.000597789
1.79758e-11
0.000597789
4.58667e-11
0.000597789
3.59107e-11
0.000597789
6.61805e-11
0.000597789
6.34456e-11
0.000597789
8.77517e-11
0.000597789
1.01649e-10
0.000597789
1.19363e-10
0.000597789
1.51211e-10
0.000597789
1.70265e-10
0.000597789
2.00629e-10
0.000597789
2.22605e-10
0.000597789
1.39243e-10
6.75684e-11
0.000610125
-2.13189e-11
0.000610125
-5.48799e-11
0.000610125
-9.16711e-12
0.000610125
-2.81544e-12
0.000610125
6.24607e-12
0.000610125
2.49964e-11
0.000610125
1.60004e-11
0.000610125
4.54705e-11
0.000610125
3.25426e-11
0.000610125
6.23369e-11
0.000610125
5.93714e-11
0.000610125
8.08004e-11
0.000610125
9.59987e-11
0.000610125
1.09435e-10
0.000610125
1.42543e-10
0.000610125
1.56702e-10
0.000610125
1.8897e-10
0.000610125
2.04635e-10
0.000610125
1.34988e-10
8.00739e-11
0.000616128
7.11767e-12
0.000616128
-1.99089e-11
0.000616128
7.18879e-12
0.000616128
7.61009e-12
0.000616128
8.41018e-12
0.000616128
2.73314e-11
0.000616128
1.33519e-11
0.000616128
4.35489e-11
0.000616128
2.81255e-11
0.000616128
5.67796e-11
0.000616128
5.34232e-11
0.000616128
7.16944e-11
0.000616128
8.74046e-11
0.000616128
9.65317e-11
0.000616128
1.29582e-10
0.000616128
1.38817e-10
0.000616128
1.71445e-10
0.000616128
1.81203e-10
0.000616128
1.25503e-10
8.67077e-11
0.000615798
2.74848e-11
0.000615798
4.97881e-12
0.000615798
1.73409e-11
0.000615798
1.40422e-11
0.000615798
8.78105e-12
0.000615798
2.76414e-11
0.000615798
1.00296e-11
0.000615798
4.00223e-11
0.000615798
2.27951e-11
0.000615798
4.9626e-11
0.000615798
4.57699e-11
0.000615798
6.07461e-11
0.000615798
7.60811e-11
0.000615798
8.11206e-11
0.000615798
1.12643e-10
0.000615798
1.17286e-10
0.000615798
1.48436e-10
0.000615798
1.53274e-10
0.000615798
1.10636e-10
8.59112e-11
0.000609136
3.80111e-11
0.000609136
1.80698e-11
0.000609136
2.0593e-11
0.000609136
1.61057e-11
0.000609136
7.36372e-12
0.000609136
2.57434e-11
0.000609136
6.29393e-12
0.000609136
3.48623e-11
0.000609136
1.68887e-11
0.000609136
4.10916e-11
0.000609136
3.67695e-11
0.000609136
4.84412e-11
0.000609136
6.2457e-11
0.000609136
6.39488e-11
0.000609136
9.23397e-11
0.000609136
9.31325e-11
0.000609136
1.2087e-10
0.000609136
1.22188e-10
0.000609136
9.08394e-11
7.70384e-11
0.000596142
3.78673e-11
0.000596142
1.95719e-11
0.000596142
1.77532e-11
0.000596142
1.42075e-11
0.000596142
4.51863e-12
0.000596142
2.16597e-11
0.000596142
2.39998e-12
0.000596142
2.80355e-11
0.000596142
1.06153e-11
0.000596142
3.12395e-11
0.000596142
2.65525e-11
0.000596142
3.4975e-11
0.000596142
4.66692e-11
0.000596142
4.53162e-11
0.000596142
6.90294e-11
0.000596142
6.67067e-11
0.000596142
8.91727e-11
0.000596142
8.83398e-11
0.000596142
6.62717e-11
6.00757e-11
0.000576815
2.83823e-11
0.000576815
1.29772e-11
0.000576815
1.11564e-11
0.000576815
9.77244e-12
0.000576815
1.75818e-12
0.000576815
1.57141e-11
0.000576815
-1.54479e-13
0.000576815
1.98629e-11
0.000576815
5.57177e-12
0.000576815
2.10396e-11
0.000576815
1.69077e-11
0.000576815
2.23174e-11
0.000576815
3.08228e-11
0.000576815
2.83084e-11
0.000576815
4.55163e-11
0.000576815
4.224e-11
0.000576815
5.79882e-11
0.000576815
5.67611e-11
0.000576815
4.20237e-11
3.88838e-11
0.000551155
1.22585e-11
0.000551155
3.71651e-12
0.000551155
4.19326e-12
0.000551155
4.37365e-12
0.000551155
-1.69008e-13
0.000551155
8.3839e-12
0.000551155
-1.35503e-12
0.000551155
1.04685e-11
0.000551155
1.59538e-12
0.000551155
1.04136e-11
0.000551155
7.59943e-12
0.000551155
1.02264e-11
0.000551155
1.4709e-11
0.000551155
1.24957e-11
0.000551155
2.16838e-11
0.000551155
1.90126e-11
0.000551155
2.70477e-11
0.000551155
2.6189e-11
0.000551155
1.82659e-11
1.5568e-11
0.000519163
0.000519163
0.000519163
0.000519163
0.000519163
0.000519163
0.000519163
0.000519163
0.000519163
0.000519163
0.000519163
0.000519163
0.000519163
0.000519163
0.000519163
0.000519163
0.000519163
0.000519163
0.000519163
)
;

boundaryField
{
    top
    {
        type            calculated;
        value           uniform 0;
    }
    bottom
    {
        type            calculated;
        value           uniform 0;
    }
    inlet
    {
        type            calculated;
        value           nonuniform List<scalar> 
20
(
-4.41625e-05
-0.000126155
-0.000201814
-0.000271141
-0.000334136
-0.000390798
-0.000441127
-0.000485125
-0.000522789
-0.000554122
-0.000579122
-0.000597789
-0.000610125
-0.000616128
-0.000615798
-0.000609136
-0.000596142
-0.000576815
-0.000551155
-0.000519163
)
;
    }
    outlet
    {
        type            calculated;
        value           nonuniform List<scalar> 
20
(
4.41626e-05
0.000126155
0.000201815
0.000271142
0.000334136
0.000390798
0.000441128
0.000485125
0.000522789
0.000554122
0.000579122
0.000597789
0.000610125
0.000616128
0.000615798
0.000609136
0.000596142
0.000576815
0.000551155
0.000519163
)
;
    }
    frontAndBack
    {
        type            empty;
        value           nonuniform 0();
    }
}


// ************************************************************************* //
