/*--------------------------------*- C++ -*----------------------------------*\
| =========                 |                                                 |
| \\      /  F ield         | OpenFOAM: The Open Source CFD Toolbox           |
|  \\    /   O peration     | Version:  v1706                                 |
|   \\  /    A nd           | Web:      www.OpenFOAM.com                      |
|    \\/     M anipulation  |                                                 |
\*---------------------------------------------------------------------------*/
FoamFile
{
    version     2.0;
    format      ascii;
    class       volVectorField;
    location    "1.5";
    object      U;
}
// * * * * * * * * * * * * * * * * * * * * * * * * * * * * * * * * * * * * * //

dimensions      [0 1 -1 0 0 0 0];


internalField   nonuniform List<vector> 
400
(
(0.88325 -7.66072e-09 0)
(0.883251 -5.76604e-09 0)
(0.883251 1.21359e-09 0)
(0.883251 -4.00539e-09 0)
(0.883251 4.09945e-09 0)
(0.883251 -2.41204e-09 0)
(0.883251 3.7669e-09 0)
(0.883251 1.6906e-10 0)
(0.883251 2.41766e-09 0)
(0.883251 3.19822e-09 0)
(0.883251 1.6537e-09 0)
(0.883251 5.52213e-09 0)
(0.883251 2.46227e-09 0)
(0.883251 6.88066e-09 0)
(0.883251 5.22906e-09 0)
(0.883251 7.88124e-09 0)
(0.883251 8.94496e-09 0)
(0.883251 8.75459e-09 0)
(0.883251 8.78102e-09 0)
(0.883252 5.12802e-09 0)
(2.5231 -3.28422e-08 0)
(2.5231 -2.98422e-08 0)
(2.5231 -2.31773e-09 0)
(2.5231 -1.34399e-08 0)
(2.5231 1.00369e-08 0)
(2.5231 -6.52336e-09 0)
(2.5231 1.06904e-08 0)
(2.5231 1.50335e-09 0)
(2.5231 7.80605e-09 0)
(2.5231 1.04179e-08 0)
(2.5231 6.43873e-09 0)
(2.5231 1.75716e-08 0)
(2.5231 9.58546e-09 0)
(2.5231 2.23578e-08 0)
(2.5231 1.82731e-08 0)
(2.5231 2.66536e-08 0)
(2.5231 2.94224e-08 0)
(2.5231 3.07136e-08 0)
(2.5231 2.43318e-08 0)
(2.5231 8.13612e-09 0)
(4.03629 -7.16106e-08 0)
(4.03629 -7.35545e-08 0)
(4.03629 -1.65621e-08 0)
(4.03629 -2.45053e-08 0)
(4.03629 1.13949e-08 0)
(4.03629 -8.50597e-09 0)
(4.03629 1.6024e-08 0)
(4.03629 5.22789e-09 0)
(4.03629 1.41769e-08 0)
(4.03629 1.94186e-08 0)
(4.03629 1.4449e-08 0)
(4.03629 3.14798e-08 0)
(4.03629 2.15772e-08 0)
(4.03629 4.11064e-08 0)
(4.03629 3.71156e-08 0)
(4.03629 5.15123e-08 0)
(4.03629 5.57672e-08 0)
(4.03629 6.20184e-08 0)
(4.03629 3.82169e-08 0)
(4.03629 1.65594e-09 0)
(5.42283 -1.12428e-07 0)
(5.42283 -1.2506e-07 0)
(5.42283 -3.71979e-08 0)
(5.42283 -3.63166e-08 0)
(5.42283 9.4524e-09 0)
(5.42283 -8.95782e-09 0)
(5.42283 1.96888e-08 0)
(5.42283 1.05404e-08 0)
(5.42283 2.05913e-08 0)
(5.42283 2.9371e-08 0)
(5.42283 2.41391e-08 0)
(5.42283 4.59696e-08 0)
(5.42283 3.63625e-08 0)
(5.42283 6.10284e-08 0)
(5.42283 5.92758e-08 0)
(5.42283 7.91746e-08 0)
(5.42283 8.5177e-08 0)
(5.42283 9.84315e-08 0)
(5.42283 5.1926e-08 0)
(5.42283 -7.08731e-09 0)
(6.68272 -1.47148e-07 0)
(6.68272 -1.73303e-07 0)
(6.68272 -5.94245e-08 0)
(6.68272 -4.73319e-08 0)
(6.68272 5.42027e-09 0)
(6.68272 -8.19414e-09 0)
(6.68272 2.18101e-08 0)
(6.68272 1.6631e-08 0)
(6.68272 2.64683e-08 0)
(6.68272 3.92503e-08 0)
(6.68272 3.42587e-08 0)
(6.68272 5.97455e-08 0)
(6.68272 5.20475e-08 0)
(6.68272 8.02179e-08 0)
(6.68272 8.2184e-08 0)
(6.68272 1.06765e-07 0)
(6.68272 1.14663e-07 0)
(6.68272 1.35706e-07 0)
(6.68272 6.64017e-08 0)
(6.68272 -1.34967e-08 0)
(7.81596 -1.71216e-07 0)
(7.81596 -2.1084e-07 0)
(7.81596 -7.8954e-08 0)
(7.81596 -5.63362e-08 0)
(7.81596 6.62246e-10 0)
(7.81596 -6.69171e-09 0)
(7.81596 2.27026e-08 0)
(7.81596 2.26354e-08 0)
(7.81596 3.12985e-08 0)
(7.81596 4.81035e-08 0)
(7.81596 4.35149e-08 0)
(7.81596 7.16659e-08 0)
(7.81596 6.66585e-08 0)
(7.81596 9.69216e-08 0)
(7.81596 1.03231e-07 0)
(7.81596 1.31433e-07 0)
(7.81596 1.41255e-07 0)
(7.81596 1.69432e-07 0)
(7.81596 8.07678e-08 0)
(7.81596 -1.60991e-08 0)
(8.82255 -1.82349e-07 0)
(8.82255 -2.3308e-07 0)
(8.82255 -9.24067e-08 0)
(8.82255 -6.18924e-08 0)
(8.82255 -3.61196e-09 0)
(8.82255 -4.40936e-09 0)
(8.82255 2.27626e-08 0)
(8.82255 2.8242e-08 0)
(8.82255 3.50068e-08 0)
(8.82255 5.55706e-08 0)
(8.82255 5.14444e-08 0)
(8.82255 8.12956e-08 0)
(8.82255 7.94083e-08 0)
(8.82255 1.10474e-07 0)
(8.82255 1.21402e-07 0)
(8.82255 1.51943e-07 0)
(8.82255 1.63982e-07 0)
(8.82255 1.97605e-07 0)
(8.82255 9.49054e-08 0)
(8.82255 -1.35587e-08 0)
(9.70249 -1.80027e-07 0)
(9.70249 -2.37952e-07 0)
(9.70249 -9.75778e-08 0)
(9.70249 -6.28803e-08 0)
(9.70249 -6.45626e-09 0)
(9.70249 -1.21841e-09 0)
(9.70249 2.23366e-08 0)
(9.70249 3.32969e-08 0)
(9.70249 3.76065e-08 0)
(9.70249 6.14616e-08 0)
(9.70249 5.77964e-08 0)
(9.70249 8.84192e-08 0)
(9.70249 8.984e-08 0)
(9.70249 1.20523e-07 0)
(9.70249 1.3612e-07 0)
(9.70249 1.6755e-07 0)
(9.70249 1.82327e-07 0)
(9.70249 2.19035e-07 0)
(9.70249 1.08389e-07 0)
(9.70249 -5.51848e-09 0)
(10.4558 -1.65281e-07 0)
(10.4558 -2.25795e-07 0)
(10.4558 -9.37047e-08 0)
(10.4558 -5.88167e-08 0)
(10.4558 -7.31137e-09 0)
(10.4558 2.92644e-09 0)
(10.4558 2.16709e-08 0)
(10.4558 3.7692e-08 0)
(10.4558 3.9126e-08 0)
(10.4558 6.56623e-08 0)
(10.4558 6.24119e-08 0)
(10.4558 9.29227e-08 0)
(10.4558 9.76502e-08 0)
(10.4558 1.26862e-07 0)
(10.4558 1.46998e-07 0)
(10.4558 1.77812e-07 0)
(10.4558 1.95908e-07 0)
(10.4558 2.33061e-07 0)
(10.4558 1.20502e-07 0)
(10.4558 7.44139e-09 0)
(11.0824 -1.40352e-07 0)
(11.0824 -1.99012e-07 0)
(11.0824 -8.14989e-08 0)
(11.0824 -5.00214e-08 0)
(11.0824 -6.07846e-09 0)
(11.0824 7.88608e-09 0)
(11.0824 2.08846e-08 0)
(11.0824 4.13121e-08 0)
(11.0824 3.9581e-08 0)
(11.0824 6.81046e-08 0)
(11.0824 6.51798e-08 0)
(11.0824 9.47631e-08 0)
(11.0824 1.02626e-07 0)
(11.0824 1.29403e-07 0)
(11.0824 1.53759e-07 0)
(11.0824 1.82556e-07 0)
(11.0824 2.04376e-07 0)
(11.0824 2.39424e-07 0)
(11.0824 1.30381e-07 0)
(11.0824 2.39826e-08 0)
(11.5824 -1.08319e-07 0)
(11.5824 -1.61558e-07 0)
(11.5824 -6.29502e-08 0)
(11.5824 -3.7596e-08 0)
(11.5824 -3.12874e-09 0)
(11.5824 1.33082e-08 0)
(11.5824 1.99581e-08 0)
(11.5824 4.40119e-08 0)
(11.5824 3.89626e-08 0)
(11.5824 6.87444e-08 0)
(11.5824 6.60191e-08 0)
(11.5824 9.39465e-08 0)
(11.5824 1.04619e-07 0)
(11.5824 1.28192e-07 0)
(11.5824 1.56198e-07 0)
(11.5824 1.81787e-07 0)
(11.5824 2.07386e-07 0)
(11.5824 2.38178e-07 0)
(11.5824 1.37126e-07 0)
(11.5824 4.22128e-08 0)
(11.9558 -7.2727e-08 0)
(11.9558 -1.18336e-07 0)
(11.9558 -4.09485e-08 0)
(11.9558 -2.32448e-08 0)
(11.9558 7.89364e-10 0)
(11.9558 1.86569e-08 0)
(11.9558 1.87613e-08 0)
(11.9558 4.56187e-08 0)
(11.9558 3.72501e-08 0)
(11.9558 6.75653e-08 0)
(11.9558 6.48853e-08 0)
(11.9558 9.05411e-08 0)
(11.9558 1.03547e-07 0)
(11.9558 1.23337e-07 0)
(11.9558 1.54197e-07 0)
(11.9558 1.75623e-07 0)
(11.9558 2.04643e-07 0)
(11.9558 2.29776e-07 0)
(11.9558 1.39937e-07 0)
(11.9558 5.99371e-08 0)
(12.2025 -3.72735e-08 0)
(12.2025 -7.45967e-08 0)
(12.2025 -1.87896e-08 0)
(12.2025 -8.97821e-09 0)
(12.2025 4.72046e-09 0)
(12.2025 2.32908e-08 0)
(12.2025 1.71073e-08 0)
(12.2025 4.59482e-08 0)
(12.2025 3.44306e-08 0)
(12.2025 6.45924e-08 0)
(12.2025 6.17769e-08 0)
(12.2025 8.47035e-08 0)
(12.2025 9.94044e-08 0)
(12.2025 1.15005e-07 0)
(12.2025 1.47729e-07 0)
(12.2025 1.64371e-07 0)
(12.2025 1.95969e-07 0)
(12.2025 2.14798e-07 0)
(12.2025 1.38158e-07 0)
(12.2025 7.48756e-08 0)
(12.3226 -5.50047e-09 0)
(12.3226 -3.53363e-08 0)
(12.3226 3.58569e-10 0)
(12.3226 3.24878e-09 0)
(12.3226 7.71903e-09 0)
(12.3226 2.65698e-08 0)
(12.3226 1.4823e-08 0)
(12.3226 4.48252e-08 0)
(12.3226 3.05229e-08 0)
(12.3226 5.98763e-08 0)
(12.3226 5.67425e-08 0)
(12.3226 7.66223e-08 0)
(12.3226 9.22539e-08 0)
(12.3226 1.03501e-07 0)
(12.3226 1.36874e-07 0)
(12.3226 1.48512e-07 0)
(12.3226 1.81344e-07 0)
(12.3226 1.93892e-07 0)
(12.3226 1.31302e-07 0)
(12.3226 8.48637e-08 0)
(12.316 1.94659e-08 0)
(12.316 -4.73598e-09 0)
(12.316 1.39874e-08 0)
(12.316 1.1898e-08 0)
(12.316 9.0712e-09 0)
(12.316 2.79766e-08 0)
(12.316 1.18248e-08 0)
(12.316 4.21255e-08 0)
(12.316 2.56113e-08 0)
(12.316 5.34983e-08 0)
(12.316 4.99013e-08 0)
(12.316 6.65296e-08 0)
(12.316 8.22477e-08 0)
(12.316 8.92349e-08 0)
(12.316 1.21848e-07 0)
(12.316 1.2865e-07 0)
(12.316 1.60983e-07 0)
(12.316 1.67976e-07 0)
(12.316 1.19087e-07 0)
(12.316 8.80652e-08 0)
(12.1827 3.52195e-08 0)
(12.1827 1.44089e-08 0)
(12.1827 2.0681e-08 0)
(12.1827 1.61331e-08 0)
(12.1827 8.47561e-09 0)
(12.1827 2.71958e-08 0)
(12.1827 8.19287e-09 0)
(12.1827 3.77743e-08 0)
(12.1827 1.98785e-08 0)
(12.1827 4.55846e-08 0)
(12.1827 4.14554e-08 0)
(12.1827 5.47518e-08 0)
(12.1827 6.96313e-08 0)
(12.1827 7.27119e-08 0)
(12.1827 1.0302e-07 0)
(12.1827 1.05491e-07 0)
(12.1827 1.35374e-07 0)
(12.1827 1.38057e-07 0)
(12.1827 1.01483e-07 0)
(12.1827 8.32129e-08 0)
(11.9228 4.02666e-08 0)
(11.9228 2.11866e-08 0)
(11.9228 2.04465e-08 0)
(11.9228 1.59732e-08 0)
(11.9228 6.15064e-09 0)
(11.9228 2.41541e-08 0)
(11.9228 4.23215e-09 0)
(11.9228 3.17567e-08 0)
(11.9228 1.36519e-08 0)
(11.9228 3.63191e-08 0)
(11.9228 3.17265e-08 0)
(11.9228 4.17183e-08 0)
(11.9228 5.47785e-08 0)
(11.9228 5.45864e-08 0)
(11.9228 8.09943e-08 0)
(11.9228 7.9913e-08 0)
(11.9228 1.05382e-07 0)
(11.9228 1.0525e-07 0)
(11.9228 7.89228e-08 0)
(11.9228 6.99313e-08 0)
(11.5363 3.46211e-08 0)
(11.5363 1.74771e-08 0)
(11.5363 1.49825e-08 0)
(11.5363 1.24029e-08 0)
(11.5363 3.10135e-09 0)
(11.5363 1.90575e-08 0)
(11.5363 8.87605e-10 0)
(11.5363 2.4246e-08 0)
(11.5363 7.90227e-09 0)
(11.5363 2.62621e-08 0)
(11.5363 2.17121e-08 0)
(11.5363 2.85795e-08 0)
(11.5363 3.88706e-08 0)
(11.5363 3.66328e-08 0)
(11.5363 5.74378e-08 0)
(11.5363 5.43032e-08 0)
(11.5363 7.36826e-08 0)
(11.5363 7.23867e-08 0)
(11.5363 5.41858e-08 0)
(11.5363 5.00768e-08 0)
(11.0231 2.10198e-08 0)
(11.0231 8.43237e-09 0)
(11.0231 7.59633e-09 0)
(11.0231 7.15037e-09 0)
(11.0231 4.94646e-10 0)
(11.0231 1.23679e-08 0)
(11.0231 -1.15445e-09 0)
(11.0231 1.54708e-08 0)
(11.0231 3.24878e-09 0)
(11.0231 1.58184e-08 0)
(11.0231 1.20755e-08 0)
(11.0231 1.60862e-08 0)
(11.0231 2.27569e-08 0)
(11.0231 1.99775e-08 0)
(11.0231 3.35754e-08 0)
(11.0231 3.01233e-08 0)
(11.0231 4.22745e-08 0)
(11.0231 4.09544e-08 0)
(11.0231 2.96734e-08 0)
(11.0231 2.70609e-08 0)
(10.3833 6.41651e-09 0)
(10.3833 1.78214e-09 0)
(10.3833 1.96879e-09 0)
(10.3833 2.18179e-09 0)
(10.3833 -1.87027e-10 0)
(10.3833 4.29828e-09 0)
(10.3833 -7.54187e-10 0)
(10.3833 5.35902e-09 0)
(10.3833 7.62633e-10 0)
(10.3833 5.29548e-09 0)
(10.3833 3.81757e-09 0)
(10.3833 5.15048e-09 0)
(10.3833 7.46635e-09 0)
(10.3833 6.23744e-09 0)
(10.3833 1.09926e-08 0)
(10.3833 9.52659e-09 0)
(10.3833 1.36649e-08 0)
(10.3833 1.31514e-08 0)
(10.3833 9.19515e-09 0)
(10.3833 7.81972e-09 0)
)
;

boundaryField
{
    top
    {
        type            fixedValue;
        value           uniform (10 0 0);
    }
    bottom
    {
        type            fixedValue;
        value           uniform (0 0 0);
    }
    inlet
    {
        type            zeroGradient;
    }
    outlet
    {
        type            zeroGradient;
    }
    frontAndBack
    {
        type            empty;
    }
}


// ************************************************************************* //
