/*--------------------------------*- C++ -*----------------------------------*\
| =========                 |                                                 |
| \\      /  F ield         | OpenFOAM: The Open Source CFD Toolbox           |
|  \\    /   O peration     | Version:  v1706                                 |
|   \\  /    A nd           | Web:      www.OpenFOAM.com                      |
|    \\/     M anipulation  |                                                 |
\*---------------------------------------------------------------------------*/
FoamFile
{
    version     2.0;
    format      ascii;
    class       surfaceScalarField;
    location    "2.2";
    object      phi;
}
// * * * * * * * * * * * * * * * * * * * * * * * * * * * * * * * * * * * * * //

dimensions      [0 3 -1 0 0 0 0];
oriented        oriented;


internalField   nonuniform List<scalar> 
760
(
4.41639e-05
-3.85904e-14
4.41639e-05
-3.57397e-12
4.41639e-05
2.47524e-12
4.41639e-05
-3.39301e-12
4.41639e-05
3.18356e-12
4.41639e-05
-3.53508e-12
4.41639e-05
3.14244e-12
4.41639e-05
-3.47779e-12
4.41639e-05
2.53473e-12
4.41639e-05
-3.289e-12
4.41639e-05
1.40159e-12
4.41639e-05
-3.16801e-12
4.41639e-05
-2.88686e-13
4.41639e-05
-3.43848e-12
4.41639e-05
-2.70313e-12
4.41639e-05
-4.52211e-12
4.41639e-05
-5.85355e-12
4.41639e-05
-6.74869e-12
4.41639e-05
-6.97861e-12
-3.58932e-12
0.000126159
-7.06095e-13
0.000126159
-8.75373e-12
0.000126159
3.87216e-12
0.000126159
-6.38248e-12
0.000126159
5.42122e-12
0.000126159
-5.86562e-12
0.000126159
5.37426e-12
0.000126159
-5.09693e-12
0.000126159
4.58825e-12
0.000126159
-3.88538e-12
0.000126159
3.3766e-12
0.000126159
-2.33664e-12
0.000126159
1.98811e-12
0.000126159
-5.91412e-13
0.000126159
6.95485e-13
0.000126159
1.11533e-12
0.000126159
-3.13095e-13
0.000126159
7.14907e-13
0.000126159
-4.91135e-12
-6.70321e-12
0.000201821
-1.6903e-12
0.000201821
-1.42871e-11
0.000201821
4.01401e-12
0.000201821
-8.62128e-12
0.000201821
6.51568e-12
0.000201821
-7.0386e-12
0.000201821
6.51084e-12
0.000201821
-5.36461e-12
0.000201821
5.78728e-12
0.000201821
-2.97515e-12
0.000201821
4.97356e-12
0.000201821
2.26656e-13
0.000201821
4.64197e-12
0.000201821
4.46226e-12
0.000201821
5.67168e-12
0.000201821
9.86403e-12
0.000201821
8.39673e-12
0.000201821
1.21911e-11
0.000201821
-1.35054e-12
-1.17312e-11
0.000271151
-2.56357e-12
0.000271151
-1.93803e-11
0.000271151
3.34335e-12
0.000271151
-1.02415e-11
0.000271151
6.8367e-12
0.000271151
-7.4843e-12
0.000271151
6.92519e-12
0.000271151
-4.91757e-12
0.000271151
6.39646e-12
0.000271151
-1.422e-12
0.000271151
6.16952e-12
0.000271151
3.32675e-12
0.000271151
7.10608e-12
0.000271151
9.93836e-12
0.000271151
1.07001e-11
0.000271151
1.89543e-11
0.000271151
1.73261e-11
0.000271151
2.38387e-11
0.000271151
1.95026e-12
-1.71288e-11
0.000334147
-2.96909e-12
0.000334147
-2.33942e-11
0.000334147
2.28231e-12
0.000334147
-1.12386e-11
0.000334147
6.61654e-12
0.000334147
-7.37189e-12
0.000334147
6.80528e-12
0.000334147
-4.00821e-12
0.000334147
6.53877e-12
0.000334147
4.44897e-13
0.000334147
6.96619e-12
0.000334147
6.52497e-12
0.000334147
9.1811e-12
0.000334147
1.52001e-11
0.000334147
1.52379e-11
0.000334147
2.74e-11
0.000334147
2.54803e-11
0.000334147
3.43685e-11
0.000334147
4.12558e-12
-2.3124e-11
0.000390811
-2.7424e-12
0.000390811
-2.58243e-11
0.000390811
1.15214e-12
0.000390811
-1.15254e-11
0.000390811
5.99772e-12
0.000390811
-6.74776e-12
0.000390811
6.25885e-12
0.000390811
-2.73018e-12
0.000390811
6.30519e-12
0.000390811
2.51084e-12
0.000390811
7.43904e-12
0.000390811
9.70059e-12
0.000390811
1.09344e-11
0.000390811
2.01288e-11
0.000390811
1.93451e-11
0.000390811
3.50974e-11
0.000390811
3.29685e-11
0.000390811
4.38494e-11
0.000390811
5.72318e-12
-2.89358e-11
0.000441142
-1.85107e-12
0.000441142
-2.64359e-11
0.000441142
2.45383e-13
0.000441142
-1.10932e-11
0.000441142
5.15319e-12
0.000441142
-5.71197e-12
0.000441142
5.4247e-12
0.000441142
-1.22476e-12
0.000441142
5.80171e-12
0.000441142
4.6106e-12
0.000441142
7.65022e-12
0.000441142
1.26675e-11
0.000441142
1.23727e-11
0.000441142
2.45066e-11
0.000441142
2.29459e-11
0.000441142
4.17752e-11
0.000441142
3.96379e-11
0.000441142
5.20797e-11
0.000441142
6.99086e-12
-3.4023e-11
0.000485141
-3.86696e-13
0.000485141
-2.52426e-11
0.000485141
-2.4796e-13
0.000485141
-9.98567e-12
0.000485141
4.22509e-12
0.000485141
-4.37025e-12
0.000485141
4.42022e-12
0.000485141
3.76343e-13
0.000485141
5.11104e-12
0.000485141
6.59209e-12
0.000485141
7.63249e-12
0.000485141
1.52478e-11
0.000485141
1.3463e-11
0.000485141
2.81132e-11
0.000485141
2.59077e-11
0.000485141
4.71384e-11
0.000485141
4.52339e-11
0.000485141
5.87677e-11
0.000485141
8.04115e-12
-3.7952e-11
0.000522806
1.47526e-12
0.000522806
-2.24698e-11
0.000522806
-2.62319e-13
0.000522806
-8.30656e-12
0.000522806
3.3114e-12
0.000522806
-2.83289e-12
0.000522806
3.3361e-12
0.000522806
1.95597e-12
0.000522806
4.29265e-12
0.000522806
8.32496e-12
0.000522806
7.39573e-12
0.000522806
1.72865e-11
0.000522806
1.41466e-11
0.000522806
3.07493e-11
0.000522806
2.80674e-11
0.000522806
5.09061e-11
0.000522806
4.9446e-11
0.000522806
6.35711e-11
0.000522806
8.85647e-12
-4.04367e-11
0.000554139
3.5044e-12
0.000554139
-1.85076e-11
0.000554139
1.46544e-13
0.000554139
-6.2177e-12
0.000554139
2.46227e-12
0.000554139
-1.21395e-12
0.000554139
2.23697e-12
0.000554139
3.41378e-12
0.000554139
3.38887e-12
0.000554139
9.7066e-12
0.000554139
6.93981e-12
0.000554139
1.86652e-11
0.000554139
1.43624e-11
0.000554139
3.22638e-11
0.000554139
2.92698e-11
0.000554139
5.28604e-11
0.000554139
5.19809e-11
0.000554139
6.61744e-11
0.000554139
9.33992e-12
-4.13433e-11
0.000579139
5.44918e-12
0.000579139
-1.38507e-11
0.000579139
8.25961e-13
0.000579139
-3.92745e-12
0.000579139
1.68694e-12
0.000579139
3.70185e-13
0.000579139
1.16712e-12
0.000579139
4.66552e-12
0.000579139
2.43271e-12
0.000579139
1.06638e-11
0.000579139
6.26674e-12
0.000579139
1.93098e-11
0.000579139
1.40658e-11
0.000579139
3.25709e-11
0.000579139
2.94005e-11
0.000579139
5.28817e-11
0.000579139
5.26199e-11
0.000579139
6.63568e-11
0.000579139
9.37986e-12
-4.06726e-11
0.000597806
7.06558e-12
0.000597806
-9.03646e-12
0.000597806
1.56626e-12
0.000597806
-1.66831e-12
0.000597806
9.68527e-13
0.000597806
1.80533e-12
0.000597806
1.58223e-13
0.000597806
5.64213e-12
0.000597806
1.455e-12
0.000597806
1.11514e-11
0.000597806
5.38907e-12
0.000597806
1.91916e-11
0.000597806
1.32407e-11
0.000597806
3.16567e-11
0.000597806
2.8404e-11
0.000597806
5.09621e-11
0.000597806
5.12517e-11
0.000597806
6.40366e-11
0.000597806
8.89809e-12
-3.85428e-11
0.000610141
8.1388e-12
0.000610141
-4.58687e-12
0.000610141
2.15057e-12
0.000610141
3.31941e-13
0.000610141
2.84049e-13
0.000610141
2.98657e-12
0.000610141
-7.61526e-13
0.000610141
6.28916e-12
0.000610141
4.90352e-13
0.000610141
1.11497e-11
0.000610141
4.33543e-12
0.000610141
1.8325e-11
0.000610141
1.19055e-11
0.000610141
2.95759e-11
0.000610141
2.62934e-11
0.000610141
4.72036e-11
0.000610141
4.78838e-11
0.000610141
5.92882e-11
0.000610141
7.8734e-12
-3.5178e-11
0.000616142
8.51376e-12
0.000616142
-9.46553e-13
0.000616142
2.40353e-12
0.000616142
1.88205e-12
0.000616142
-3.74749e-13
0.000616142
3.8264e-12
0.000616142
-1.55851e-12
0.000616142
6.56654e-12
0.000616142
-4.17792e-13
0.000616142
1.0661e-11
0.000616142
3.15377e-12
0.000616142
1.67613e-11
0.000616142
1.01158e-11
0.000616142
2.64437e-11
0.000616142
2.31506e-11
0.000616142
4.18039e-11
0.000616142
4.26405e-11
0.000616142
5.23375e-11
0.000616142
6.33067e-12
-3.09126e-11
0.000615811
8.10719e-12
0.000615811
1.56306e-12
0.000615811
2.2387e-12
0.000615811
2.85398e-12
0.000615811
-9.84756e-13
0.000615811
4.26236e-12
0.000615811
-2.18782e-12
0.000615811
6.44917e-12
0.000615811
-1.2151e-12
0.000615811
9.70609e-12
0.000615811
1.91098e-12
0.000615811
1.45817e-11
0.000615811
7.96033e-12
0.000615811
2.24221e-11
0.000615811
1.91198e-11
0.000615811
3.50331e-11
0.000615811
3.57489e-11
0.000615811
4.35339e-11
0.000615811
4.31e-12
-2.62007e-11
0.000609147
6.95207e-12
0.000609147
2.80549e-12
0.000609147
1.68586e-12
0.000609147
3.20134e-12
0.000609147
-1.48207e-12
0.000609147
4.26056e-12
0.000609147
-2.58884e-12
0.000609147
5.92637e-12
0.000609147
-1.83354e-12
0.000609147
8.32163e-12
0.000609147
6.94537e-13
0.000609147
1.1892e-11
0.000609147
5.56365e-12
0.000609147
1.7712e-11
0.000609147
1.44089e-11
0.000609147
2.72237e-11
0.000609147
2.75363e-11
0.000609147
3.33312e-11
0.000609147
1.84982e-12
-2.15984e-11
0.000596151
5.21453e-12
0.000596151
2.84715e-12
0.000596151
9.02034e-13
0.000596151
2.97777e-12
0.000596151
-1.78635e-12
0.000596151
3.84063e-12
0.000596151
-2.72216e-12
0.000596151
5.02724e-12
0.000596151
-2.23964e-12
0.000596151
6.57399e-12
0.000596151
-4.51066e-13
0.000596151
8.80979e-12
0.000596151
2.99633e-12
0.000596151
1.24932e-11
0.000596151
9.15404e-12
0.000596151
1.86278e-11
0.000596151
1.82086e-11
0.000596151
2.19783e-11
0.000596151
-1.37629e-12
-1.79215e-11
0.000576821
3.19958e-12
0.000576821
2.0025e-12
0.000576821
1.64564e-13
0.000576821
2.27117e-12
0.000576821
-1.73391e-12
0.000576821
2.99234e-12
0.000576821
-2.43797e-12
0.000576821
3.75141e-12
0.000576821
-2.23349e-12
0.000576821
4.55545e-12
0.000576821
-1.22044e-12
0.000576821
5.60624e-12
0.000576821
7.55005e-13
0.000576821
7.335e-12
0.000576821
4.21058e-12
0.000576821
1.03057e-11
0.000576821
9.20772e-12
0.000576821
1.11647e-11
0.000576821
-4.10629e-12
-1.48863e-11
0.000551159
1.40301e-12
0.000551159
7.69376e-13
0.000551159
-1.95483e-13
0.000551159
1.27962e-12
0.000551159
-1.27371e-12
0.000551159
1.8366e-12
0.000551159
-1.78727e-12
0.000551159
2.22201e-12
0.000551159
-1.9003e-12
0.000551159
2.40778e-12
0.000551159
-1.70863e-12
0.000551159
2.43172e-12
0.000551159
-1.25309e-12
0.000551159
2.37071e-12
0.000551159
-4.96651e-13
0.000551159
2.31957e-12
0.000551159
4.03751e-13
0.000551159
5.52423e-13
0.000551159
-7.53265e-12
-1.32783e-11
0.000519164
0.000519164
0.000519164
0.000519164
0.000519164
0.000519164
0.000519164
0.000519164
0.000519164
0.000519164
0.000519164
0.000519164
0.000519164
0.000519164
0.000519164
0.000519164
0.000519164
0.000519164
0.000519164
)
;

boundaryField
{
    top
    {
        type            calculated;
        value           uniform 0;
    }
    bottom
    {
        type            calculated;
        value           uniform 0;
    }
    inlet
    {
        type            calculated;
        value           nonuniform List<scalar> 
20
(
-4.41639e-05
-0.000126159
-0.000201821
-0.000271151
-0.000334147
-0.000390811
-0.000441142
-0.000485141
-0.000522806
-0.000554139
-0.000579139
-0.000597806
-0.000610141
-0.000616142
-0.000615811
-0.000609147
-0.000596151
-0.000576821
-0.000551159
-0.000519164
)
;
    }
    outlet
    {
        type            calculated;
        value           nonuniform List<scalar> 
20
(
4.41639e-05
0.000126159
0.000201821
0.000271151
0.000334147
0.000390811
0.000441142
0.000485141
0.000522806
0.000554139
0.000579139
0.000597806
0.000610141
0.000616142
0.000615811
0.000609147
0.000596151
0.000576821
0.000551159
0.000519164
)
;
    }
    frontAndBack
    {
        type            empty;
        value           nonuniform 0();
    }
}


// ************************************************************************* //
