/*--------------------------------*- C++ -*----------------------------------*\
| =========                 |                                                 |
| \\      /  F ield         | OpenFOAM: The Open Source CFD Toolbox           |
|  \\    /   O peration     | Version:  v1706                                 |
|   \\  /    A nd           | Web:      www.OpenFOAM.com                      |
|    \\/     M anipulation  |                                                 |
\*---------------------------------------------------------------------------*/
FoamFile
{
    version     2.0;
    format      ascii;
    class       volVectorField;
    location    "2.2";
    object      U;
}
// * * * * * * * * * * * * * * * * * * * * * * * * * * * * * * * * * * * * * //

dimensions      [0 1 -1 0 0 0 0];


internalField   nonuniform List<vector> 
400
(
(0.883279 -5.28152e-11 0)
(0.883279 -1.07268e-09 0)
(0.883279 5.32441e-10 0)
(0.883279 -7.46433e-10 0)
(0.883279 6.54098e-10 0)
(0.883279 -6.2611e-10 0)
(0.883279 6.28224e-10 0)
(0.883279 -4.42686e-10 0)
(0.883279 5.73604e-10 0)
(0.883279 -1.58864e-10 0)
(0.883279 5.78498e-10 0)
(0.883279 2.5564e-10 0)
(0.883279 6.95124e-10 0)
(0.883279 8.45795e-10 0)
(0.883279 1.09051e-09 0)
(0.883279 1.70691e-09 0)
(0.883279 1.8551e-09 0)
(0.883279 2.30143e-09 0)
(0.883279 1.8991e-09 0)
(0.883279 7.69508e-10 0)
(2.52318 -1.74231e-10 0)
(2.52318 -6.51245e-09 0)
(2.52318 4.03108e-09 0)
(2.52318 -5.6816e-09 0)
(2.52318 5.20823e-09 0)
(2.52318 -5.71527e-09 0)
(2.52318 5.12224e-09 0)
(2.52318 -5.44079e-09 0)
(2.52318 4.17607e-09 0)
(2.52318 -4.90428e-09 0)
(2.52318 2.525e-09 0)
(2.52318 -4.37778e-09 0)
(2.52318 6.53112e-11 0)
(2.52318 -4.28138e-09 0)
(2.52318 -3.22015e-09 0)
(2.52318 -5.23114e-09 0)
(2.52318 -7.34838e-09 0)
(2.52318 -8.1297e-09 0)
(2.52318 -1.0899e-08 0)
(2.52318 -7.67543e-09 0)
(4.03643 -1.24778e-09 0)
(4.03643 -1.10344e-08 0)
(4.03643 3.62979e-09 0)
(4.03643 -6.94609e-09 0)
(4.03643 5.47342e-09 0)
(4.03643 -5.80141e-09 0)
(4.03643 5.4405e-09 0)
(4.03643 -4.47546e-09 0)
(4.03643 4.8462e-09 0)
(4.03643 -2.52547e-09 0)
(4.03643 4.2393e-09 0)
(4.03643 1.35948e-10 0)
(4.03643 4.0157e-09 0)
(4.03643 3.69515e-09 0)
(4.03643 5.01261e-09 0)
(4.03643 8.33316e-09 0)
(4.03643 7.55678e-09 0)
(4.03643 1.06232e-08 0)
(4.03643 1.10813e-09 0)
(4.03643 -6.30794e-09 0)
(5.42301 -2.17432e-09 0)
(5.42301 -1.70048e-08 0)
(5.42301 3.81042e-09 0)
(5.42301 -9.54619e-09 0)
(5.42301 6.79082e-09 0)
(5.42301 -7.38364e-09 0)
(5.42301 6.7913e-09 0)
(5.42301 -5.27549e-09 0)
(5.42301 6.08901e-09 0)
(5.42301 -2.37466e-09 0)
(5.42301 5.44733e-09 0)
(5.42301 1.50078e-09 0)
(5.42301 5.54412e-09 0)
(5.42301 6.72395e-09 0)
(5.42301 7.52761e-09 0)
(5.42301 1.35572e-08 0)
(5.42301 1.17126e-08 0)
(5.42301 1.66413e-08 0)
(5.42301 -1.19789e-09 0)
(5.42301 -1.5717e-08 0)
(6.68295 -2.90983e-09 0)
(6.68295 -2.16165e-08 0)
(6.68295 2.73534e-09 0)
(6.68295 -1.07549e-08 0)
(6.68295 6.67871e-09 0)
(6.68295 -7.39209e-09 0)
(6.68295 6.80125e-09 0)
(6.68295 -4.40692e-09 0)
(6.68295 6.38388e-09 0)
(6.68295 -4.33722e-10 0)
(6.68295 6.46075e-09 0)
(6.68295 4.95774e-09 0)
(6.68295 8.01633e-09 0)
(6.68295 1.25532e-08 0)
(6.68295 1.28088e-08 0)
(6.68295 2.30763e-08 0)
(6.68295 2.11814e-08 0)
(6.68295 2.88578e-08 0)
(6.68295 2.69572e-09 0)
(6.68295 -2.057e-08 0)
(7.81623 -3.0209e-09 0)
(7.81623 -2.49428e-08 0)
(7.81623 1.58323e-09 0)
(7.81623 -1.14469e-08 0)
(7.81623 6.25933e-09 0)
(7.81623 -7.05341e-09 0)
(7.81623 6.48633e-09 0)
(7.81623 -3.337e-09 0)
(7.81623 6.36368e-09 0)
(7.81623 1.51498e-09 0)
(7.81623 7.12624e-09 0)
(7.81623 8.13554e-09 0)
(7.81623 9.95686e-09 0)
(7.81623 1.76505e-08 0)
(7.81623 1.71514e-08 0)
(7.81623 3.11627e-08 0)
(7.81623 2.90159e-08 0)
(7.81623 3.88903e-08 0)
(7.81623 4.55557e-09 0)
(7.81623 -2.66255e-08 0)
(8.82285 -2.44957e-09 0)
(8.82285 -2.65004e-08 0)
(8.82285 5.26247e-10 0)
(8.82285 -1.14045e-08 0)
(8.82285 5.52364e-09 0)
(8.82285 -6.23988e-09 0)
(8.82285 5.80683e-09 0)
(8.82285 -1.95654e-09 0)
(8.82285 6.01522e-09 0)
(8.82285 3.59418e-09 0)
(8.82285 7.49709e-09 0)
(8.82285 1.12158e-08 0)
(8.82285 1.15893e-08 0)
(8.82285 2.23331e-08 0)
(8.82285 2.10568e-08 0)
(8.82285 3.84132e-08 0)
(8.82285 3.61717e-08 0)
(8.82285 4.78512e-08 0)
(8.82285 6.06928e-09 0)
(8.82285 -3.21107e-08 0)
(9.70281 -1.23484e-09 0)
(9.70281 -2.61926e-08 0)
(9.70281 -1.82247e-10 0)
(9.70281 -1.0648e-08 0)
(9.70281 4.63967e-09 0)
(9.70281 -5.06208e-09 0)
(9.70281 4.89847e-09 0)
(9.70281 -4.12455e-10 0)
(9.70281 5.43621e-09 0)
(9.70281 5.63155e-09 0)
(9.70281 7.61874e-09 0)
(9.70281 1.39973e-08 0)
(9.70281 1.2887e-08 0)
(9.70281 2.63511e-08 0)
(9.70281 2.43854e-08 0)
(9.70281 4.4488e-08 0)
(9.70281 4.23759e-08 0)
(9.70281 5.54075e-08 0)
(9.70281 7.31984e-09 0)
(9.70281 -3.66253e-08 0)
(10.4561 4.80892e-10 0)
(10.4561 -2.41479e-08 0)
(10.4561 -4.14378e-10 0)
(10.4561 -9.24787e-09 0)
(10.4561 3.72793e-09 0)
(10.4561 -3.62608e-09 0)
(10.4561 3.86455e-09 0)
(10.4561 1.1718e-09 0)
(10.4561 4.69638e-09 0)
(10.4561 7.4856e-09 0)
(10.4561 7.51153e-09 0)
(10.4561 1.63115e-08 0)
(10.4561 1.38006e-08 0)
(10.4561 2.94898e-08 0)
(10.4561 2.69844e-08 0)
(10.4561 4.9091e-08 0)
(10.4561 4.7336e-08 0)
(10.4561 6.12307e-08 0)
(10.4561 8.33763e-09 0)
(10.4561 -3.98111e-08 0)
(11.0828 2.48648e-09 0)
(11.0828 -2.06866e-08 0)
(11.0828 -1.69431e-10 0)
(11.0828 -7.3386e-09 0)
(11.0828 2.86265e-09 0)
(11.0828 -2.04467e-09 0)
(11.0828 2.78352e-09 0)
(11.0828 2.68691e-09 0)
(11.0828 3.8473e-09 0)
(11.0828 9.03914e-09 0)
(11.0828 7.18073e-09 0)
(11.0828 1.80207e-08 0)
(11.0828 1.42705e-08 0)
(11.0828 3.15731e-08 0)
(11.0828 2.86938e-08 0)
(11.0828 5.19721e-08 0)
(11.0828 5.07501e-08 0)
(11.0828 6.49886e-08 0)
(11.0828 9.05638e-09 0)
(11.0828 -4.14634e-08 0)
(11.5828 4.53325e-09 0)
(11.5828 -1.62654e-08 0)
(11.5828 4.39418e-10 0)
(11.5828 -5.11024e-09 0)
(11.5828 2.07156e-09 0)
(11.5828 -4.34703e-10 0)
(11.5828 1.70965e-09 0)
(11.5828 4.03973e-09 0)
(11.5828 2.92691e-09 0)
(11.5828 1.02034e-08 0)
(11.5828 6.62715e-09 0)
(11.5828 1.90275e-08 0)
(11.5828 1.42433e-08 0)
(11.5828 3.2481e-08 0)
(11.5828 2.93772e-08 0)
(11.5828 5.29607e-08 0)
(11.5828 5.23584e-08 0)
(11.5828 6.64037e-08 0)
(11.5828 9.36052e-09 0)
(11.5828 -4.15264e-08 0)
(11.9561 6.3667e-09 0)
(11.9561 -1.14148e-08 0)
(11.9561 1.21973e-09 0)
(11.9561 -2.79108e-09 0)
(11.9561 1.34782e-09 0)
(11.9561 1.08535e-09 0)
(11.9561 6.80661e-10 0)
(11.9561 5.1519e-09 0)
(11.9561 1.96789e-09 0)
(11.9561 1.09181e-08 0)
(11.9561 5.85929e-09 0)
(11.9561 1.92796e-08 0)
(11.9561 1.36898e-08 0)
(11.9561 3.21633e-08 0)
(11.9561 2.89504e-08 0)
(11.9561 5.19938e-08 0)
(11.9561 5.19959e-08 0)
(11.9561 6.53231e-08 0)
(11.9561 9.14999e-09 0)
(11.9561 -4.0067e-08 0)
(12.2028 7.75162e-09 0)
(12.2028 -6.67784e-09 0)
(12.2028 1.94595e-09 0)
(12.2028 -6.203e-10 0)
(12.2028 6.67124e-10 0)
(12.2028 2.4025e-09 0)
(12.2028 -2.74233e-10 0)
(12.2028 5.9602e-09 0)
(12.2028 1.00351e-09 0)
(12.2028 1.115e-08 0)
(12.2028 4.8988e-09 0)
(12.2028 1.87699e-08 0)
(12.2028 1.26125e-08 0)
(12.2028 3.06419e-08 0)
(12.2028 2.73943e-08 0)
(12.2028 4.91218e-08 0)
(12.2028 4.9614e-08 0)
(12.2028 6.17462e-08 0)
(12.2028 8.3781e-09 0)
(12.2028 -3.72611e-08 0)
(12.3228 8.49787e-09 0)
(12.3228 -2.54972e-09 0)
(12.3228 2.4101e-09 0)
(12.3228 1.18422e-09 0)
(12.3228 9.39775e-12 0)
(12.3228 3.41709e-09 0)
(12.3228 -1.12501e-09 0)
(12.3228 6.41543e-09 0)
(12.3228 7.28661e-11 0)
(12.3228 1.08888e-08 0)
(12.3228 3.78405e-09 0)
(12.3228 1.75296e-08 0)
(12.3228 1.10477e-08 0)
(12.3228 2.79995e-08 0)
(12.3228 2.47538e-08 0)
(12.3228 4.44918e-08 0)
(12.3228 4.52745e-08 0)
(12.3228 5.58228e-08 0)
(12.3228 7.04617e-09 0)
(12.3228 -3.33913e-08 0)
(12.3162 8.48121e-09 0)
(12.3162 5.74779e-10 0)
(12.3162 2.47091e-09 0)
(12.3162 2.45759e-09 0)
(12.3162 -6.22032e-10 0)
(12.3162 4.05319e-09 0)
(12.3162 -1.83444e-09 0)
(12.3162 6.48504e-09 0)
(12.3162 -7.76451e-10 0)
(12.3162 1.01465e-08 0)
(12.3162 2.5715e-09 0)
(12.3162 1.56255e-08 0)
(12.3162 9.06672e-09 0)
(12.3162 2.43755e-08 0)
(12.3162 2.11411e-08 0)
(12.3162 3.83387e-08 0)
(12.3162 3.9153e-08 0)
(12.3162 4.78451e-08 0)
(12.3162 5.19655e-09 0)
(12.3162 -2.88465e-08 0)
(12.1829 7.66166e-09 0)
(12.1829 2.45631e-09 0)
(12.1829 2.09258e-09 0)
(12.1829 3.10609e-09 0)
(12.1829 -1.17931e-09 0)
(12.1829 4.25573e-09 0)
(12.1829 -2.33842e-09 0)
(12.1829 6.14445e-09 0)
(12.1829 -1.46607e-09 0)
(12.1829 8.95047e-09 0)
(12.1829 1.3633e-09 0)
(12.1829 1.31589e-08 0)
(12.1829 6.81306e-09 0)
(12.1829 1.99779e-08 0)
(12.1829 1.67897e-08 0)
(12.1829 3.10239e-08 0)
(12.1829 3.16193e-08 0)
(12.1829 3.83241e-08 0)
(12.1829 2.99412e-09 0)
(12.1829 -2.40702e-08 0)
(11.923 6.21048e-09 0)
(11.923 3.0493e-09 0)
(11.923 1.3482e-09 0)
(11.923 3.19317e-09 0)
(11.923 -1.68098e-09 0)
(11.923 4.11289e-09 0)
(11.923 -2.74527e-09 0)
(11.923 5.4956e-09 0)
(11.923 -2.17582e-09 0)
(11.923 7.38416e-09 0)
(11.923 -1.06534e-10 0)
(11.923 1.01339e-08 0)
(11.923 3.88582e-09 0)
(11.923 1.46249e-08 0)
(11.923 1.10785e-08 0)
(11.923 2.20007e-08 0)
(11.923 2.16308e-08 0)
(11.923 2.6057e-08 0)
(11.923 -1.46717e-09 0)
(11.923 -2.07734e-08 0)
(11.5364 3.93834e-09 0)
(11.5364 2.50363e-09 0)
(11.5364 5.82491e-10 0)
(11.5364 2.47037e-09 0)
(11.5364 -1.52157e-09 0)
(11.5364 3.14483e-09 0)
(11.5364 -2.16252e-09 0)
(11.5364 4.10233e-09 0)
(11.5364 -1.63708e-09 0)
(11.5364 5.40491e-09 0)
(11.5364 1.16224e-11 0)
(11.5364 7.3811e-09 0)
(11.5364 3.1312e-09 0)
(11.5364 1.07385e-08 0)
(11.5364 8.65384e-09 0)
(11.5364 1.64612e-08 0)
(11.5364 1.69743e-08 0)
(11.5364 2.04834e-08 0)
(11.5364 2.12955e-09 0)
(11.5364 -1.30639e-08 0)
(11.0232 2.54346e-09 0)
(11.0232 1.38058e-09 0)
(11.0232 -1.38413e-10 0)
(11.0232 2.02005e-09 0)
(11.0232 -1.91585e-09 0)
(11.0232 2.83701e-09 0)
(11.0232 -2.75909e-09 0)
(11.0232 3.43509e-09 0)
(11.0232 -2.95123e-09 0)
(11.0232 3.74935e-09 0)
(11.0232 -2.65842e-09 0)
(11.0232 3.82558e-09 0)
(11.0232 -1.93553e-09 0)
(11.0232 3.80967e-09 0)
(11.0232 -7.09381e-10 0)
(11.0232 3.78715e-09 0)
(11.0232 6.60709e-10 0)
(11.0232 8.70236e-10 0)
(11.0232 -1.18352e-08 0)
(11.0232 -1.70358e-08 0)
(10.3833 3.16607e-10 0)
(10.3833 3.77314e-10 0)
(10.3833 -4.5358e-11 0)
(10.3833 3.35574e-10 0)
(10.3833 -2.23648e-10 0)
(10.3833 4.11979e-10 0)
(10.3833 -2.08486e-10 0)
(10.3833 5.43122e-10 0)
(10.3833 -2.74555e-11 0)
(10.3833 7.66776e-10 0)
(10.3833 3.47762e-10 0)
(10.3833 1.16885e-09 0)
(10.3833 1.00676e-09 0)
(10.3833 1.91575e-09 0)
(10.3833 2.14291e-09 0)
(10.3833 3.2716e-09 0)
(10.3833 4.01145e-09 0)
(10.3833 4.8088e-09 0)
(10.3833 2.28963e-09 0)
(10.3833 -2.57887e-09 0)
)
;

boundaryField
{
    top
    {
        type            fixedValue;
        value           uniform (10 0 0);
    }
    bottom
    {
        type            fixedValue;
        value           uniform (0 0 0);
    }
    inlet
    {
        type            zeroGradient;
    }
    outlet
    {
        type            zeroGradient;
    }
    frontAndBack
    {
        type            empty;
    }
}


// ************************************************************************* //
