/*--------------------------------*- C++ -*----------------------------------*\
| =========                 |                                                 |
| \\      /  F ield         | OpenFOAM: The Open Source CFD Toolbox           |
|  \\    /   O peration     | Version:  v1706                                 |
|   \\  /    A nd           | Web:      www.OpenFOAM.com                      |
|    \\/     M anipulation  |                                                 |
\*---------------------------------------------------------------------------*/
FoamFile
{
    version     2.0;
    format      ascii;
    class       surfaceScalarField;
    location    "0.3";
    object      phi;
}
// * * * * * * * * * * * * * * * * * * * * * * * * * * * * * * * * * * * * * //

dimensions      [0 3 -1 0 0 0 0];
oriented        oriented;


internalField   nonuniform List<scalar> 
760
(
4.13285e-05
-3.19149e-10
4.13286e-05
-5.8733e-12
4.13287e-05
-1.07515e-10
4.13286e-05
5.08249e-11
4.13286e-05
-3.89276e-11
4.13287e-05
-7.43751e-11
4.13287e-05
1.38321e-11
4.13287e-05
-4.78442e-11
4.13287e-05
3.2539e-11
4.13288e-05
-5.20187e-11
4.13287e-05
1.03478e-11
4.13288e-05
-2.42079e-11
4.13288e-05
1.85832e-11
4.13288e-05
-8.32656e-14
4.13287e-05
1.52931e-11
4.13287e-05
5.58884e-12
4.13287e-05
3.68281e-11
4.13287e-05
-2.1746e-11
4.13286e-05
9.39378e-11
-9.94158e-11
0.000117723
-8.71548e-10
0.000117723
-2.05089e-10
0.000117723
-2.81702e-10
0.000117723
1.04639e-10
0.000117723
-9.60444e-11
0.000117723
-2.00709e-10
0.000117723
2.54891e-11
0.000117723
-1.26194e-10
0.000117723
5.11017e-11
0.000117723
-1.2158e-10
0.000117723
1.07955e-11
0.000117723
-4.98345e-11
0.000117723
2.65358e-11
0.000117723
2.52449e-11
0.000117723
8.44772e-12
0.000117723
3.46858e-11
0.000117723
1.11202e-10
0.000117723
-3.06751e-11
0.000117723
2.49893e-10
-2.30471e-10
0.000187992
-1.45719e-09
0.000187992
-6.06362e-10
0.000187992
-4.55431e-10
0.000187992
1.39194e-10
0.000187992
-1.40926e-10
0.000187992
-3.38759e-10
0.000187992
1.41358e-11
0.000187992
-2.00611e-10
0.000187992
3.94935e-11
0.000187992
-1.77329e-10
0.000187992
-1.19795e-11
0.000187992
-6.45575e-11
0.000187992
1.14183e-11
0.000187992
7.47666e-11
0.000187992
-2.58237e-11
0.000187992
8.79919e-11
0.000187992
2.03565e-10
0.000187992
-1.32883e-11
0.000187992
4.24258e-10
-3.31777e-10
0.000252268
-1.9985e-09
0.000252269
-1.12183e-09
0.000252269
-6.0816e-10
0.000252269
1.68581e-10
0.000252269
-1.52565e-10
0.000252269
-4.58799e-10
0.000252269
-1.42704e-11
0.000252269
-2.59747e-10
0.000252269
6.00314e-12
0.000252269
-2.18119e-10
0.000252269
-5.40313e-11
0.000252269
-6.99411e-11
0.000252269
-2.20788e-11
0.000252269
1.3949e-10
0.000252269
-7.78008e-11
0.000252269
1.55212e-10
0.000252269
3.09797e-10
0.000252269
1.41366e-11
0.000252269
6.1019e-10
-3.83455e-10
0.000310677
-2.42864e-09
0.000310678
-1.6618e-09
0.000310678
-7.18386e-10
0.000310678
2.03923e-10
0.000310678
-1.19803e-10
0.000310678
-5.34029e-10
0.000310678
-4.98217e-11
0.000310678
-2.96384e-10
0.000310678
-4.32679e-11
0.000310678
-2.43184e-10
0.000310678
-1.08285e-10
0.000310678
-6.56259e-11
0.000310678
-6.78867e-11
0.000310678
2.14004e-10
0.000310678
-1.40238e-10
0.000310678
2.26232e-10
0.000310678
4.2449e-10
0.000310678
3.79783e-11
0.000310678
7.94426e-10
-3.75528e-10
0.000363331
-2.70115e-09
0.000363331
-2.14886e-09
0.000363331
-7.69704e-10
0.000363331
2.50792e-10
0.000363331
-3.74987e-11
0.000363331
-5.45585e-10
0.000363331
-8.13677e-11
0.000363331
-3.04965e-10
0.000363331
-1.00126e-10
0.000363331
-2.5155e-10
0.000363332
-1.67516e-10
0.000363331
-5.22701e-11
0.000363332
-1.20025e-10
0.000363331
2.91671e-10
0.000363332
-2.06061e-10
0.000363331
2.92552e-10
0.000363331
5.42147e-10
0.000363331
4.84425e-11
0.000363331
9.59287e-10
-3.06631e-10
0.000410328
-2.79034e-09
0.000410329
-2.52238e-09
0.000410329
-7.52759e-10
0.000410329
3.08462e-10
0.000410329
9.06187e-11
0.000410329
-4.85582e-10
0.000410329
-9.95772e-11
0.000410329
-2.82908e-10
0.000410329
-1.56231e-10
0.000410329
-2.42821e-10
0.000410329
-2.2484e-10
0.000410329
-3.13551e-11
0.000410329
-1.72562e-10
0.000410329
3.65517e-10
0.000410329
-2.68766e-10
0.000410329
3.4786e-10
0.000410329
6.55746e-10
0.000410329
4.17147e-11
0.000410328
1.08684e-09
-1.85104e-10
0.000451752
-2.69096e-09
0.000451752
-2.7422e-09
0.000451752
-6.66631e-10
0.000451752
3.70456e-10
0.000451752
2.52263e-10
0.000451752
-3.57808e-10
0.000451752
-9.87713e-11
0.000451752
-2.31155e-10
0.000451752
-2.04452e-10
0.000451752
-2.1771e-10
0.000451752
-2.74271e-10
0.000451752
-4.99817e-12
0.000451752
-2.19996e-10
0.000451752
4.28817e-10
0.000451752
-3.22802e-10
0.000451752
3.88182e-10
0.000451752
7.56404e-10
0.000451752
1.95574e-11
0.000451752
1.16288e-09
-2.65335e-11
0.000487664
-2.41701e-09
0.000487665
-2.79071e-09
0.000487664
-5.18943e-10
0.000487664
4.26436e-10
0.000487664
4.2804e-10
0.000487664
-1.77145e-10
0.000487664
-7.82506e-11
0.000487664
-1.54489e-10
0.000487664
-2.39815e-10
0.000487664
-1.78286e-10
0.000487664
-3.11175e-10
0.000487664
2.42573e-11
0.000487664
-2.57659e-10
0.000487664
4.75731e-10
0.000487664
-3.63826e-10
0.000487664
4.11807e-10
0.000487664
8.33768e-10
0.000487664
-1.20896e-11
0.000487664
1.17957e-09
1.49149e-10
0.000518109
-1.99965e-09
0.000518109
-2.67307e-09
0.000518109
-3.251e-10
0.000518109
4.64831e-10
0.000518109
5.94453e-10
0.000518109
3.27251e-11
0.000518109
-4.24211e-11
0.000518109
-6.12411e-11
0.000518109
-2.59932e-10
0.000518109
-1.27978e-10
0.000518109
-3.32606e-10
0.000518109
5.36515e-11
0.000518109
-2.82128e-10
0.000518109
5.01832e-10
0.000518109
-3.88858e-10
0.000518109
4.18899e-10
0.000518109
8.77311e-10
0.000518109
-4.52289e-11
0.000518109
1.13642e-09
3.20898e-10
0.000543109
-1.48425e-09
0.000543108
-2.41523e-09
0.000543108
-1.06767e-10
0.000543108
4.75616e-10
0.000543108
7.27844e-10
0.000543108
2.43015e-10
0.000543108
2.92391e-13
0.000543108
3.76432e-11
0.000543108
-2.64913e-10
0.000543108
-7.13594e-11
0.000543108
-3.3746e-10
0.000543108
8.04276e-11
0.000543108
-2.91544e-10
0.000543108
5.04512e-10
0.000543108
-3.96326e-10
0.000543108
4.10884e-10
0.000543108
8.78285e-10
0.000543108
-7.19359e-11
0.000543108
1.03967e-09
4.69397e-10
0.000562662
-9.2607e-10
0.000562662
-2.05955e-09
0.000562662
1.10315e-10
0.000562662
4.52653e-10
0.000562662
8.08596e-10
0.000562661
4.2443e-10
0.000562661
3.95362e-11
0.000562661
1.30085e-10
0.000562661
-2.56804e-10
0.000562661
-1.37293e-11
0.000562661
-3.26402e-10
0.000562661
1.02058e-10
0.000562661
-2.85757e-10
0.000562661
4.8325e-10
0.000562661
-3.86032e-10
0.000562661
3.89716e-10
0.000562661
8.31876e-10
0.000562661
-8.6081e-11
0.000562661
9.00523e-10
5.7921e-10
0.000576748
-3.84869e-10
0.000576748
-1.65776e-09
0.000576748
2.99213e-10
0.000576748
3.95235e-10
0.000576748
8.24723e-10
0.000576748
5.51921e-10
0.000576748
6.56589e-11
0.000576747
2.04651e-10
0.000576747
-2.38689e-10
0.000576747
3.9449e-11
0.000576747
-3.01554e-10
0.000576747
1.16464e-10
0.000576747
-2.66238e-10
0.000576747
4.39722e-10
0.000576747
-3.59063e-10
0.000576747
3.57252e-10
0.000576748
7.39037e-10
0.000576747
-8.44619e-11
0.000576748
7.33032e-10
6.40121e-10
0.000585324
8.16676e-11
0.000585323
-1.26206e-09
0.000585323
4.35403e-10
0.000585323
3.08714e-10
0.000585323
7.74145e-10
0.000585323
6.08817e-10
0.000585323
7.22904e-11
0.000585323
2.52305e-10
0.000585323
-2.13695e-10
0.000585323
8.31189e-11
0.000585323
-2.6601e-10
0.000585323
1.22211e-10
0.000585323
-2.35737e-10
0.000585323
3.77759e-10
0.000585323
-3.17685e-10
0.000585323
3.14944e-10
0.000585323
6.07524e-10
0.000585323
-6.73934e-11
0.000585324
5.52109e-10
6.47736e-10
0.000588326
4.24838e-10
0.000588325
-9.15118e-10
0.000588325
5.00943e-10
0.000588325
2.04281e-10
0.000588325
6.65193e-10
0.000588325
5.89702e-10
0.000588326
5.82972e-11
0.000588326
2.67797e-10
0.000588325
-1.84118e-10
0.000588325
1.13086e-10
0.000588325
-2.23248e-10
0.000588325
1.18647e-10
0.000588325
-1.97707e-10
0.000588325
3.0311e-10
0.000588325
-2.65212e-10
0.000588325
2.64014e-10
0.000588326
4.51794e-10
0.000588326
-3.88674e-11
0.000588326
3.72375e-10
6.03519e-10
0.000585672
6.11546e-10
0.000585671
-6.40836e-10
0.000585672
4.88645e-10
0.000585672
9.815e-11
0.000585672
5.1518e-10
0.000585672
5.01529e-10
0.000585672
2.85762e-11
0.000585672
2.50398e-10
0.000585672
-1.50956e-10
0.000585672
1.26189e-10
0.000585672
-1.76571e-10
0.000585672
1.05998e-10
0.000585672
-1.55565e-10
0.000585672
2.23025e-10
0.000585672
-2.05811e-10
0.000585672
2.06137e-10
0.000585672
2.9158e-10
0.000585672
-6.3406e-12
0.000585672
2.07977e-10
5.14282e-10
0.000577263
6.2898e-10
0.000577263
-4.38097e-10
0.000577263
4.05092e-10
0.000577263
9.88359e-12
0.000577264
3.47731e-10
0.000577264
3.63435e-10
0.000577264
-6.32413e-12
0.000577264
2.03962e-10
0.000577264
-1.13921e-10
0.000577264
1.20118e-10
0.000577264
-1.28649e-10
0.000577264
8.52734e-11
0.000577264
-1.11905e-10
0.000577264
1.45596e-10
0.000577264
-1.44141e-10
0.000577264
1.44329e-10
0.000577264
1.49117e-10
0.000577264
2.01776e-11
0.000577264
7.39862e-11
3.91535e-10
0.000562988
4.87874e-10
0.000562987
-2.79145e-10
0.000562988
2.71174e-10
0.000562988
-3.81968e-11
0.000562988
1.88426e-10
0.000562988
2.03726e-10
0.000562988
-3.2085e-11
0.000562988
1.36153e-10
0.000562988
-7.27574e-11
0.000562988
9.23658e-11
0.000562988
-8.1463e-11
0.000562988
5.84043e-11
0.000562988
-6.76744e-11
0.000562988
7.90654e-11
0.000562988
-8.45043e-11
0.000562988
8.41184e-11
0.000562988
4.5429e-11
0.000562988
3.04168e-11
0.000562988
-1.19794e-11
2.49189e-10
0.00054272
2.18102e-10
0.00054272
-1.2077e-10
0.00054272
1.11746e-10
0.00054272
-2.89962e-11
0.00054272
6.34706e-11
0.00054272
6.16743e-11
0.00054272
-3.15325e-11
0.00054272
5.87667e-11
0.00054272
-2.46668e-11
0.00054272
4.24948e-11
0.00054272
-3.54248e-11
0.00054272
2.58234e-11
0.00054272
-2.44002e-11
0.00054272
2.85556e-11
0.00054272
-3.11398e-11
0.00054272
3.10608e-11
0.00054272
-2.34469e-12
0.00054272
1.44522e-11
0.00054272
-2.91527e-11
1.05179e-10
0.000516328
0.000516328
0.000516328
0.000516328
0.000516328
0.000516328
0.000516328
0.000516328
0.000516328
0.000516328
0.000516328
0.000516328
0.000516328
0.000516328
0.000516328
0.000516328
0.000516328
0.000516328
0.000516328
)
;

boundaryField
{
    top
    {
        type            calculated;
        value           uniform 0;
    }
    bottom
    {
        type            calculated;
        value           uniform 0;
    }
    inlet
    {
        type            calculated;
        value           nonuniform List<scalar> 
20
(
-4.13282e-05
-0.000117722
-0.000187991
-0.000252268
-0.000310677
-0.000363331
-0.000410328
-0.000451752
-0.000487665
-0.00051811
-0.000543109
-0.000562663
-0.000576749
-0.000585324
-0.000588326
-0.000585672
-0.000577263
-0.000562987
-0.00054272
-0.000516327
)
;
    }
    outlet
    {
        type            calculated;
        value           nonuniform List<scalar> 
20
(
4.13287e-05
0.000117723
0.000187992
0.000252269
0.000310678
0.000363331
0.000410328
0.000451751
0.000487664
0.000518108
0.000543108
0.000562661
0.000576748
0.000585324
0.000588326
0.000585672
0.000577264
0.000562988
0.000542721
0.000516328
)
;
    }
    frontAndBack
    {
        type            empty;
        value           nonuniform 0();
    }
}


// ************************************************************************* //
