/*--------------------------------*- C++ -*----------------------------------*\
| =========                 |                                                 |
| \\      /  F ield         | OpenFOAM: The Open Source CFD Toolbox           |
|  \\    /   O peration     | Version:  v1706                                 |
|   \\  /    A nd           | Web:      www.OpenFOAM.com                      |
|    \\/     M anipulation  |                                                 |
\*---------------------------------------------------------------------------*/
FoamFile
{
    version     2.0;
    format      ascii;
    class       volVectorField;
    location    "0.3";
    object      U;
}
// * * * * * * * * * * * * * * * * * * * * * * * * * * * * * * * * * * * * * //

dimensions      [0 1 -1 0 0 0 0];


internalField   nonuniform List<vector> 
400
(
(0.826567 -1.43134e-07 0)
(0.826571 2.32724e-08 0)
(0.826574 -4.80203e-08 0)
(0.826571 2.80815e-08 0)
(0.826574 -2.60288e-08 0)
(0.826571 -3.7472e-08 0)
(0.826576 6.21407e-09 0)
(0.826572 -2.4252e-08 0)
(0.826576 1.688e-08 0)
(0.826573 -2.67292e-08 0)
(0.826577 6.87687e-09 0)
(0.826574 -1.10999e-08 0)
(0.826576 1.20121e-08 0)
(0.826574 -1.34855e-09 0)
(0.826576 9.46745e-09 0)
(0.826575 8.20467e-10 0)
(0.826575 1.46277e-08 0)
(0.826574 -1.00972e-08 0)
(0.826573 4.19188e-08 0)
(0.826573 -5.58252e-08 0)
(2.35444 -5.7259e-07 0)
(2.35445 -6.32356e-08 0)
(2.35446 -1.90528e-07 0)
(2.35445 7.99542e-08 0)
(2.35446 -6.29071e-08 0)
(2.35445 -1.27293e-07 0)
(2.35447 2.72221e-08 0)
(2.35446 -8.30838e-08 0)
(2.35447 4.78734e-08 0)
(2.35446 -8.71774e-08 0)
(2.35447 1.47663e-08 0)
(2.35446 -3.88738e-08 0)
(2.35447 2.56862e-08 0)
(2.35446 6.40525e-09 0)
(2.35447 1.60193e-08 0)
(2.35446 1.55348e-08 0)
(2.35446 6.94702e-08 0)
(2.35446 -3.42777e-08 0)
(2.35446 1.64518e-07 0)
(2.35446 -1.61654e-07 0)
(3.75982 -1.15239e-06 0)
(3.75983 -3.62581e-07 0)
(3.75985 -3.63799e-07 0)
(3.75983 1.24636e-07 0)
(3.75985 -1.28454e-07 0)
(3.75983 -2.72166e-07 0)
(3.75986 2.12603e-08 0)
(3.75984 -1.65411e-07 0)
(3.75986 5.03329e-08 0)
(3.75984 -1.51182e-07 0)
(3.75986 4.35933e-09 0)
(3.75984 -5.83606e-08 0)
(3.75985 2.44463e-08 0)
(3.75984 4.59437e-08 0)
(3.75985 -4.08141e-09 0)
(3.75985 5.77476e-08 0)
(3.75985 1.50344e-07 0)
(3.75984 -2.31427e-08 0)
(3.75984 3.29398e-07 0)
(3.75984 -2.93927e-07 0)
(5.04536 -1.74711e-06 0)
(5.04537 -8.43822e-07 0)
(5.04539 -5.38086e-07 0)
(5.04536 1.54161e-07 0)
(5.04539 -1.54686e-07 0)
(5.04536 -4.05989e-07 0)
(5.04539 4.15105e-09 0)
(5.04537 -2.34436e-07 0)
(5.04539 2.80331e-08 0)
(5.04537 -2.01611e-07 0)
(5.04539 -2.88587e-08 0)
(5.04538 -6.97289e-08 0)
(5.04539 -1.38422e-09 0)
(5.04538 1.03304e-07 0)
(5.04539 -4.82473e-08 0)
(5.04538 1.19367e-07 0)
(5.04538 2.54785e-07 0)
(5.04538 -1.71866e-09 0)
(5.04538 5.15271e-07 0)
(5.04538 -3.69656e-07 0)
(6.21354 -2.25009e-06 0)
(6.21354 -1.39459e-06 0)
(6.21357 -6.74996e-07 0)
(6.21354 1.8409e-07 0)
(6.21357 -1.47706e-07 0)
(6.21353 -5.11052e-07 0)
(6.21357 -3.1746e-08 0)
(6.21354 -2.85002e-07 0)
(6.21357 -1.55359e-08 0)
(6.21354 -2.34883e-07 0)
(6.21357 -7.8697e-08 0)
(6.21355 -7.02074e-08 0)
(6.21357 -4.2381e-08 0)
(6.21355 1.75051e-07 0)
(6.21356 -1.07103e-07 0)
(6.21355 1.90862e-07 0)
(6.21356 3.66461e-07 0)
(6.21355 2.7872e-08 0)
(6.21355 7.04917e-07 0)
(6.21355 -3.94663e-07 0)
(7.26662 -2.61042e-06 0)
(7.26661 -1.92702e-06 0)
(7.26665 -7.59572e-07 0)
(7.26661 2.23913e-07 0)
(7.26665 -9.00161e-08 0)
(7.2666 -5.57678e-07 0)
(7.26665 -6.81462e-08 0)
(7.26661 -3.08506e-07 0)
(7.26665 -7.09896e-08 0)
(7.26661 -2.51687e-07 0)
(7.26664 -1.37473e-07 0)
(7.26662 -6.0986e-08 0)
(7.26664 -9.30521e-08 0)
(7.26662 2.52889e-07 0)
(7.26664 -1.72878e-07 0)
(7.26663 2.61201e-07 0)
(7.26663 4.842e-07 0)
(7.26662 4.68826e-08 0)
(7.26663 8.83967e-07 0)
(7.26662 -3.54568e-07 0)
(8.20657 -2.79472e-06 0)
(8.20656 -2.37063e-06 0)
(8.2066 -7.78774e-07 0)
(8.20655 2.76722e-07 0)
(8.2066 1.71872e-08 0)
(8.20655 -5.33838e-07 0)
(8.2066 -9.51083e-08 0)
(8.20655 -3.01934e-07 0)
(8.20659 -1.29551e-07 0)
(8.20656 -2.51421e-07 0)
(8.20659 -1.97512e-07 0)
(8.20656 -4.33416e-08 0)
(8.20659 -1.46929e-07 0)
(8.20657 3.30335e-07 0)
(8.20658 -2.38533e-07 0)
(8.20657 3.23042e-07 0)
(8.20658 6.01747e-07 0)
(8.20657 4.91299e-08 0)
(8.20658 1.03408e-06 0)
(8.20657 -2.56069e-07 0)
(9.03504 -2.78807e-06 0)
(9.03503 -2.67491e-06 0)
(9.03506 -7.27249e-07 0)
(9.03502 3.38434e-07 0)
(9.03506 1.66026e-07 0)
(9.03501 -4.37366e-07 0)
(9.03506 -1.04594e-07 0)
(9.03501 -2.64234e-07 0)
(9.03505 -1.83252e-07 0)
(9.03502 -2.34139e-07 0)
(9.03505 -2.52318e-07 0)
(9.03502 -1.91093e-08 0)
(9.03505 -1.9827e-07 0)
(9.03502 4.00414e-07 0)
(9.03504 -2.98011e-07 0)
(9.03503 3.71312e-07 0)
(9.03504 7.11225e-07 0)
(9.03503 3.37715e-08 0)
(9.03504 1.13856e-06 0)
(9.03503 -1.11431e-07 0)
(9.7533 -2.59508e-06 0)
(9.75327 -2.81071e-06 0)
(9.75331 -6.08052e-07 0)
(9.75326 4.00137e-07 0)
(9.75331 3.40011e-07 0)
(9.75325 -2.78042e-07 0)
(9.7533 -9.3361e-08 0)
(9.75326 -1.98273e-07 0)
(9.7533 -2.25957e-07 0)
(9.75326 -2.01167e-07 0)
(9.7533 -2.96515e-07 0)
(9.75326 9.36771e-09 0)
(9.75329 -2.41888e-07 0)
(9.75327 4.56744e-07 0)
(9.75329 -3.46346e-07 0)
(9.75327 4.03284e-07 0)
(9.75329 8.02765e-07 0)
(9.75327 5.2586e-09 0)
(9.75328 1.18583e-06 0)
(9.75327 6.07749e-08 0)
(10.3622 -2.239e-06 0)
(10.3622 -2.77201e-06 0)
(10.3622 -4.32905e-07 0)
(10.3622 4.50195e-07 0)
(10.3622 5.16885e-07 0)
(10.3621 -7.58904e-08 0)
(10.3622 -6.33878e-08 0)
(10.3621 -1.10746e-07 0)
(10.3622 -2.53935e-07 0)
(10.3622 -1.55261e-07 0)
(10.3622 -3.26238e-07 0)
(10.3622 3.93881e-08 0)
(10.3622 -2.73653e-07 0)
(10.3622 4.94083e-07 0)
(10.3622 -3.79868e-07 0)
(10.3622 4.18313e-07 0)
(10.3622 8.65518e-07 0)
(10.3622 -2.8951e-08 0)
(10.3622 1.17174e-06 0)
(10.3622 2.39371e-07 0)
(10.8622 -1.75913e-06 0)
(10.8622 -2.57524e-06 0)
(10.8622 -2.20798e-07 0)
(10.8621 4.77161e-07 0)
(10.8622 6.72063e-07 0)
(10.8621 1.41764e-07 0)
(10.8622 -2.15246e-08 0)
(10.8621 -1.16182e-08 0)
(10.8622 -2.66133e-07 0)
(10.8621 -1.00511e-07 0)
(10.8622 -3.39447e-07 0)
(10.8621 6.81388e-08 0)
(10.8622 -2.90862e-07 0)
(10.8621 5.08838e-07 0)
(10.8622 -3.96314e-07 0)
(10.8621 4.1738e-07 0)
(10.8622 8.89345e-07 0)
(10.8621 -6.0452e-08 0)
(10.8622 1.09949e-06 0)
(10.8622 4.03582e-07 0)
(11.2533 -1.20713e-06 0)
(11.2532 -2.25606e-06 0)
(11.2533 3.87097e-09 0)
(11.2532 4.72424e-07 0)
(11.2533 7.82958e-07 0)
(11.2532 3.4467e-07 0)
(11.2533 2.22041e-08 0)
(11.2532 8.71566e-08 0)
(11.2532 -2.63826e-07 0)
(11.2532 -4.1988e-08 0)
(11.2532 -3.35971e-07 0)
(11.2532 9.29209e-08 0)
(11.2532 -2.92503e-07 0)
(11.2532 4.99406e-07 0)
(11.2532 -3.94825e-07 0)
(11.2532 4.02354e-07 0)
(11.2532 8.6698e-07 0)
(11.2532 -8.19002e-08 0)
(11.2532 9.78336e-07 0)
(11.2532 5.35642e-07 0)
(11.535 -6.42115e-07 0)
(11.5349 -1.86361e-06 0)
(11.535 2.13831e-07 0)
(11.5349 4.32222e-07 0)
(11.535 8.33055e-07 0)
(11.5349 5.04511e-07 0)
(11.535 5.709e-08 0)
(11.5349 1.73343e-07 0)
(11.535 -2.49835e-07 0)
(11.5349 1.47723e-08 0)
(11.535 -3.17304e-07 0)
(11.5349 1.11377e-07 0)
(11.535 -2.79292e-07 0)
(11.5349 4.66356e-07 0)
(11.535 -3.75866e-07 0)
(11.5349 3.75259e-07 0)
(11.535 7.96144e-07 0)
(11.5349 -8.8454e-08 0)
(11.535 8.21447e-07 0)
(11.535 6.22522e-07 0)
(11.7065 -1.24506e-07 0)
(11.7065 -1.45234e-06 0)
(11.7065 3.82289e-07 0)
(11.7064 3.58714e-07 0)
(11.7065 8.15026e-07 0)
(11.7064 5.99597e-07 0)
(11.7065 7.45407e-08 0)
(11.7064 2.3631e-07 0)
(11.7065 -2.27517e-07 0)
(11.7065 6.43856e-08 0)
(11.7065 -2.86206e-07 0)
(11.7065 1.21708e-07 0)
(11.7065 -2.53458e-07 0)
(11.7065 4.12467e-07 0)
(11.7065 -3.41148e-07 0)
(11.7065 3.37761e-07 0)
(11.7065 6.81088e-07 0)
(11.7065 -7.85865e-08 0)
(11.7065 6.43726e-07 0)
(11.7065 6.56915e-07 0)
(11.7665 2.91346e-07 0)
(11.7665 -1.07233e-06 0)
(11.7665 4.86907e-07 0)
(11.7665 2.60243e-07 0)
(11.7665 7.32027e-07 0)
(11.7665 6.18288e-07 0)
(11.7665 7.03096e-08 0)
(11.7665 2.68657e-07 0)
(11.7665 -1.99858e-07 0)
(11.7665 1.02149e-07 0)
(11.7665 -2.46185e-07 0)
(11.7665 1.22888e-07 0)
(11.7665 -2.18323e-07 0)
(11.7665 3.42643e-07 0)
(11.7665 -2.93499e-07 0)
(11.7665 2.91118e-07 0)
(11.7665 5.33096e-07 0)
(11.7665 -5.44527e-08 0)
(11.7665 4.59931e-07 0)
(11.7665 6.37436e-07 0)
(11.7134 5.62877e-07 0)
(11.7134 -7.59105e-07 0)
(11.7134 5.14079e-07 0)
(11.7134 1.50405e-07 0)
(11.7135 5.97531e-07 0)
(11.7134 5.61435e-07 0)
(11.7135 4.62543e-08 0)
(11.7134 2.67364e-07 0)
(11.7135 -1.68562e-07 0)
(11.7134 1.24449e-07 0)
(11.7134 -2.00792e-07 0)
(11.7134 1.14656e-07 0)
(11.7134 -1.77513e-07 0)
(11.7134 2.63451e-07 0)
(11.7134 -2.36709e-07 0)
(11.7134 2.36458e-07 0)
(11.7134 3.69685e-07 0)
(11.7134 -2.1694e-08 0)
(11.7134 2.8438e-07 0)
(11.7134 5.68597e-07 0)
(11.5453 6.64795e-07 0)
(11.5453 -5.23228e-07 0)
(11.5453 4.62498e-07 0)
(11.5453 4.92163e-08 0)
(11.5453 4.31214e-07 0)
(11.5453 4.39939e-07 0)
(11.5453 1.01474e-08 0)
(11.5453 2.33541e-07 0)
(11.5453 -1.33895e-07 0)
(11.5453 1.28057e-07 0)
(11.5453 -1.52877e-07 0)
(11.5453 9.7817e-08 0)
(11.5453 -1.33785e-07 0)
(11.5453 1.82571e-07 0)
(11.5453 -1.74919e-07 0)
(11.5453 1.7606e-07 0)
(11.5453 2.12729e-07 0)
(11.5453 1.02683e-08 0)
(11.5453 1.30065e-07 0)
(11.5453 4.57894e-07 0)
(11.2598 5.82321e-07 0)
(11.2597 -3.49232e-07 0)
(11.2598 3.43219e-07 0)
(11.2597 -2.83187e-08 0)
(11.2598 2.63766e-07 0)
(11.2597 2.8564e-07 0)
(11.2598 -2.1894e-08 0)
(11.2598 1.73107e-07 0)
(11.2598 -9.18193e-08 0)
(11.2598 1.1075e-07 0)
(11.2598 -1.03345e-07 0)
(11.2598 7.14294e-08 0)
(11.2598 -8.89153e-08 0)
(11.2598 1.07524e-07 0)
(11.2598 -1.13217e-07 0)
(11.2598 1.12312e-07 0)
(11.2598 8.55421e-08 0)
(11.2598 2.85713e-08 0)
(11.2598 2.01621e-08 0)
(11.2598 3.22869e-07 0)
(10.8544 3.70733e-07 0)
(10.8544 -1.9257e-07 0)
(10.8544 1.93977e-07 0)
(10.8544 -3.82423e-08 0)
(10.8544 1.1199e-07 0)
(10.8544 1.18441e-07 0)
(10.8544 -3.92975e-08 0)
(10.8544 9.6458e-08 0)
(10.8544 -4.93291e-08 0)
(10.8544 6.84713e-08 0)
(10.8544 -5.72796e-08 0)
(10.8544 4.32647e-08 0)
(10.8544 -4.34613e-08 0)
(10.8544 5.05134e-08 0)
(10.8544 -5.53322e-08 0)
(10.8544 5.74263e-08 0)
(10.8544 9.26758e-09 0)
(10.8544 2.53879e-08 0)
(10.8544 -3.58835e-08 0)
(10.8544 1.69678e-07 0)
(10.3266 1.06738e-07 0)
(10.3266 -6.22264e-08 0)
(10.3266 5.3051e-08 0)
(10.3266 -2.4931e-08 0)
(10.3266 3.25182e-08 0)
(10.3266 3.09119e-08 0)
(10.3266 -1.64473e-08 0)
(10.3266 2.96193e-08 0)
(10.3266 -1.06338e-08 0)
(10.3266 2.3661e-08 0)
(10.3266 -1.67551e-08 0)
(10.3266 1.15947e-08 0)
(10.3266 -1.22671e-08 0)
(10.3266 1.01515e-08 0)
(10.3266 -1.5034e-08 0)
(10.3266 1.36233e-08 0)
(10.3266 -5.81976e-09 0)
(10.3266 9.26786e-09 0)
(10.3266 -1.76019e-08 0)
(10.3266 5.44827e-08 0)
)
;

boundaryField
{
    top
    {
        type            fixedValue;
        value           uniform (10 0 0);
    }
    bottom
    {
        type            fixedValue;
        value           uniform (0 0 0);
    }
    inlet
    {
        type            zeroGradient;
    }
    outlet
    {
        type            zeroGradient;
    }
    frontAndBack
    {
        type            empty;
    }
}


// ************************************************************************* //
