/*--------------------------------*- C++ -*----------------------------------*\
| =========                 |                                                 |
| \\      /  F ield         | OpenFOAM: The Open Source CFD Toolbox           |
|  \\    /   O peration     | Version:  v1706                                 |
|   \\  /    A nd           | Web:      www.OpenFOAM.com                      |
|    \\/     M anipulation  |                                                 |
\*---------------------------------------------------------------------------*/
FoamFile
{
    version     2.0;
    format      ascii;
    class       surfaceScalarField;
    location    "0.2";
    object      phi;
}
// * * * * * * * * * * * * * * * * * * * * * * * * * * * * * * * * * * * * * //

dimensions      [0 3 -1 0 0 0 0];
oriented        oriented;


internalField   nonuniform List<scalar> 
760
(
3.67651e-05
-6.43606e-09
3.6765e-05
1.13415e-10
3.67664e-05
-1.387e-09
3.6767e-05
-6.08424e-10
3.67669e-05
-3.08315e-11
3.67681e-05
-1.16597e-09
3.67674e-05
7.2465e-10
3.67683e-05
-9.09289e-10
3.67674e-05
9.67075e-10
3.67679e-05
-5.78741e-10
3.67671e-05
8.10878e-10
3.67675e-05
-4.06918e-10
3.6767e-05
5.15433e-10
3.67673e-05
-2.60921e-10
3.6767e-05
2.79322e-10
3.67672e-05
-1.77913e-10
3.6767e-05
2.01794e-10
3.67671e-05
-1.30839e-10
3.67669e-05
2.0215e-10
-2.70082e-10
0.000104142
-1.73697e-08
0.000104145
-2.63522e-09
0.000104147
-3.69057e-09
0.000104149
-2.53235e-09
0.000104149
-5.19335e-10
0.000104151
-3.28246e-09
0.000104151
1.44117e-09
0.000104152
-1.98723e-09
0.00010415
2.34291e-09
0.000104151
-9.68364e-10
0.00010415
1.98466e-09
0.00010415
-6.38887e-10
0.000104149
1.19602e-09
0.000104149
-4.35146e-10
0.000104149
5.7203e-10
0.000104149
-3.00452e-10
0.000104149
4.61182e-10
0.000104149
-2.4171e-10
0.000104149
4.92062e-10
-6.15364e-10
0.000165724
-2.86697e-08
0.00016573
-8.43038e-09
0.000165733
-6.19149e-09
0.000165736
-5.48369e-09
0.000165737
-1.59677e-09
0.000165739
-5.67232e-09
0.000165739
1.67449e-09
0.00016574
-2.63005e-09
0.000165738
3.56399e-09
0.000165738
-7.39841e-10
0.000165737
3.06008e-09
0.000165737
-4.06968e-10
0.000165736
1.74209e-09
0.000165736
-3.30237e-10
0.000165736
7.1286e-10
0.000165736
-2.52664e-10
0.000165736
6.60542e-10
0.000165736
-2.52304e-10
0.000165735
7.65496e-10
-8.76503e-10
0.000221858
-3.8653e-08
0.000221866
-1.5845e-08
0.000221868
-8.71862e-09
0.000221872
-8.92795e-09
0.000221873
-3.14357e-09
0.000221876
-8.0424e-09
0.000221876
1.46605e-09
0.000221876
-2.82827e-09
0.000221875
4.5784e-09
0.000221874
1.26985e-11
0.000221873
4.00169e-09
0.000221873
2.00978e-10
0.000221872
2.15648e-09
0.000221872
3.71779e-12
0.000221872
7.30683e-10
0.000221872
-7.78003e-11
0.000221872
8.12031e-10
0.000221872
-2.05247e-10
0.000221871
1.02575e-09
-1.02518e-09
0.000272867
-4.597e-08
0.000272875
-2.34693e-08
0.000272877
-1.09961e-08
0.000272881
-1.23319e-08
0.000272882
-4.96533e-09
0.000272884
-1.01282e-08
0.000272885
8.80674e-10
0.000272885
-2.61006e-09
0.000272884
5.34063e-09
0.000272883
1.16291e-09
0.000272882
4.77065e-09
0.000272881
1.08529e-09
0.000272881
2.44009e-09
0.00027288
5.04829e-10
0.000272881
6.52641e-10
0.00027288
1.83073e-10
0.00027288
9.28906e-10
0.00027288
-1.36633e-10
0.00027288
1.26471e-09
-1.04643e-09
0.000319045
-4.97082e-08
0.000319052
-3.00592e-08
0.000319053
-1.27037e-08
0.000319056
-1.52168e-08
0.000319058
-6.82606e-09
0.00031906
-1.17034e-08
0.000319061
1.55108e-11
0.00031906
-2.03102e-09
0.000319059
5.81338e-09
0.000319058
2.56291e-09
0.000319058
5.32773e-09
0.000319056
2.13391e-09
0.000319056
2.59244e-09
0.000319056
1.10665e-09
0.000319056
5.03572e-10
0.000319056
4.90476e-10
0.000319055
1.02102e-09
0.000319055
-7.4174e-11
0.000319055
1.46708e-09
-9.36203e-10
0.00036065
-4.94517e-08
0.000360654
-3.46722e-08
0.000360655
-1.35534e-08
0.000360657
-1.72087e-08
0.000360659
-8.48705e-09
0.00036066
-1.25994e-08
0.000360661
-1.00925e-09
0.00036066
-1.16458e-09
0.00036066
5.97572e-09
0.000360658
4.05727e-09
0.000360658
5.63841e-09
0.000360657
3.23056e-09
0.000360657
2.6123e-09
0.000360656
1.74173e-09
0.000360656
3.05228e-10
0.000360656
8.08719e-10
0.000360656
1.09257e-09
0.000360656
-3.35067e-11
0.000360656
1.61357e-09
-7.06739e-10
0.000397896
-4.52818e-08
0.000397898
-3.67577e-08
0.000397898
-1.33587e-08
0.000397899
-1.80771e-08
0.0003979
-9.7428e-09
0.0003979
-1.27206e-08
0.000397901
-2.06586e-09
0.0003979
-9.56363e-11
0.0003979
5.82586e-09
0.000397899
5.4961e-09
0.000397899
5.67787e-09
0.000397898
4.26392e-09
0.000397898
2.49952e-09
0.000397897
2.34597e-09
0.000397897
7.59989e-11
0.000397897
1.10736e-09
0.000397897
1.14109e-09
0.000397897
-1.83522e-11
0.000397897
1.68641e-09
-3.8468e-10
0.000430952
-3.77312e-08
0.000430951
-3.61922e-08
0.00043095
-1.20847e-08
0.000430949
-1.77574e-08
0.00043095
-1.04522e-08
0.00043095
-1.20553e-08
0.000430951
-3.03583e-09
0.000430949
1.08376e-09
0.00043095
5.38175e-09
0.000430949
6.74667e-09
0.000430949
5.43601e-09
0.000430948
5.13642e-09
0.000430948
2.2577e-09
0.000430948
2.86313e-09
0.000430948
-1.6849e-10
0.000430948
1.36235e-09
0.000430948
1.15815e-09
0.000430948
-2.24619e-11
0.000430948
1.67433e-09
-7.22159e-12
0.000459932
-2.76976e-08
0.000459929
-3.32544e-08
0.000459926
-9.86549e-09
0.000459925
-1.63503e-08
0.000459925
-1.0557e-08
0.000459924
-1.06794e-08
0.000459925
-3.82484e-09
0.000459923
2.27693e-09
0.000459924
4.67996e-09
0.000459923
7.70223e-09
0.000459924
4.92204e-09
0.000459923
5.7716e-09
0.000459923
1.89727e-09
0.000459923
3.24878e-09
0.000459923
-4.14259e-10
0.000459923
1.5566e-09
0.000459923
1.13184e-09
0.000459923
-3.32938e-11
0.000459923
1.57555e-09
3.83203e-10
0.000484896
-1.63299e-08
0.000484891
-2.85462e-08
0.000484888
-6.98834e-09
0.000484886
-1.40982e-08
0.000484886
-1.00849e-08
0.000484884
-8.74916e-09
0.000484884
-4.37248e-09
0.000484883
3.38512e-09
0.000484884
3.77358e-09
0.000484883
8.28801e-09
0.000484884
4.16752e-09
0.000484884
6.11952e-09
0.000484884
1.43812e-09
0.000484884
3.47331e-09
0.000484884
-6.47692e-10
0.000484884
1.6798e-09
0.000484884
1.05054e-09
0.000484884
-3.63465e-11
0.000484884
1.39828e-09
7.44393e-10
0.000505848
-4.89621e-09
0.000505842
-2.28725e-08
0.000505839
-3.8456e-09
0.000505836
-1.13391e-08
0.000505835
-9.13627e-09
0.000505833
-6.48381e-09
0.000505833
-4.65485e-09
0.000505833
4.31124e-09
0.000505834
2.72999e-09
0.000505833
8.46393e-09
0.000505834
3.22763e-09
0.000505834
6.15936e-09
0.000505835
9.11248e-10
0.000505835
3.5235e-09
0.000505835
-8.54495e-10
0.000505835
1.72753e-09
0.000505835
9.07557e-10
0.000505835
-1.93354e-11
0.000505835
1.15914e-09
1.03921e-09
0.000522734
5.35397e-09
0.000522728
-1.70945e-08
0.000522725
-8.65458e-10
0.000522722
-8.44747e-09
0.000522721
-7.85839e-09
0.000522719
-4.13838e-09
0.000522719
-4.67956e-09
0.000522718
4.96563e-09
0.000522719
1.62887e-09
0.00052272
8.22448e-09
0.000522721
2.17995e-09
0.000522721
5.89893e-09
0.000522721
3.58888e-10
0.000522722
3.40233e-09
0.000522722
-1.01924e-09
0.000522722
1.69999e-09
0.000522722
7.05296e-10
0.000522722
2.43628e-11
0.000522722
8.80405e-10
1.23931e-09
0.000535445
1.33246e-08
0.00053544
-1.19767e-08
0.000535437
1.56526e-09
0.000535435
-5.76954e-09
0.000535433
-6.41341e-09
0.000535431
-1.97103e-09
0.000535431
-4.4747e-09
0.00053543
5.27382e-09
0.000535432
5.60563e-10
0.000535432
7.59599e-09
0.000535433
1.12091e-09
0.000535434
5.37095e-09
0.000535434
-1.67229e-10
0.000535435
3.12689e-09
0.000535435
-1.12567e-09
0.000535435
1.60045e-09
0.000535435
4.58377e-10
0.000535435
9.32515e-11
0.000535435
5.8716e-10
1.32751e-09
0.000543817
1.81973e-08
0.000543813
-8.04436e-09
0.000543812
3.17045e-09
0.000543809
-3.56687e-09
0.000543808
-4.94804e-09
0.000543806
-2.09508e-10
0.000543806
-4.07468e-09
0.000543806
5.1853e-09
0.000543807
-3.75658e-10
0.000543808
6.63164e-09
0.000543809
1.59758e-10
0.000543809
4.62668e-09
0.00054381
-6.09212e-10
0.00054381
2.72448e-09
0.00054381
-1.15779e-09
0.00054381
1.43414e-09
0.000543811
1.94636e-10
0.000543811
1.76378e-10
0.000543811
3.05495e-10
1.29888e-09
0.000547638
1.9537e-08
0.000547636
-5.47136e-09
0.000547635
3.83062e-09
0.000547633
-1.9757e-09
0.000547632
-3.57206e-09
0.000547631
9.78219e-10
0.00054763
-3.50679e-09
0.000547631
4.68136e-09
0.000547631
-1.07448e-09
0.000547633
5.4045e-09
0.000547633
-5.89524e-10
0.000547634
3.72737e-09
0.000547635
-9.07682e-10
0.000547635
2.22746e-09
0.000547635
-1.10135e-09
0.000547635
1.20752e-09
0.000547635
-4.63838e-11
0.000547635
2.53295e-10
0.000547636
6.23085e-11
1.16018e-09
0.000546651
1.73718e-08
0.000546649
-4.01758e-09
0.000546649
3.59236e-09
0.000546648
-9.90063e-10
0.000546647
-2.35065e-09
0.000546647
1.5053e-09
0.000546646
-2.78195e-09
0.000546647
3.78082e-09
0.000546647
-1.42884e-09
0.000546649
3.99961e-09
0.000546649
-1.01757e-09
0.00054665
2.73517e-09
0.00054665
-1.00686e-09
0.000546651
1.6672e-09
0.00054665
-9.4527e-10
0.000546651
9.28211e-10
0.000546651
-2.17744e-10
0.000546651
2.95888e-10
0.000546651
-1.12757e-10
9.2761e-10
0.000540559
1.22306e-08
0.000540558
-3.03253e-09
0.000540559
2.63109e-09
0.000540558
-4.67804e-10
0.000540557
-1.31106e-09
0.000540557
1.3758e-09
0.000540556
-1.89216e-09
0.000540557
2.53903e-09
0.000540557
-1.33863e-09
0.000540559
2.50291e-09
0.000540559
-1.0284e-09
0.00054056
1.70339e-09
0.00054056
-8.59713e-10
0.00054056
1.06814e-09
0.00054056
-6.81849e-10
0.00054056
6.04944e-10
0.00054056
-2.71428e-10
0.00054056
2.73459e-10
0.000540561
-1.85839e-10
6.19735e-10
0.000529035
5.13058e-09
0.000529033
-1.54878e-09
0.000529035
1.1614e-09
0.000529035
-1.68351e-10
0.000529034
-4.65665e-10
0.000529034
6.8791e-10
0.000529033
-8.09179e-10
0.000529035
1.05151e-09
0.000529034
-7.13326e-10
0.000529036
9.93288e-10
0.000529035
-5.52207e-10
0.000529036
6.66884e-10
0.000529036
-4.31158e-10
0.000529036
4.41566e-10
0.000529036
-3.06195e-10
0.000529036
2.41713e-10
0.000529036
-1.67509e-10
0.000529036
1.52039e-10
0.000529036
-1.15582e-10
2.61717e-10
0.000511728
0.000511727
0.000511728
0.000511728
0.000511727
0.000511728
0.000511727
0.000511728
0.000511727
0.000511728
0.000511728
0.000511728
0.000511728
0.000511728
0.000511728
0.000511728
0.000511728
0.000511728
0.000511728
)
;

boundaryField
{
    top
    {
        type            calculated;
        value           uniform 0;
    }
    bottom
    {
        type            calculated;
        value           uniform 0;
    }
    inlet
    {
        type            calculated;
        value           nonuniform List<scalar> 
20
(
-3.67587e-05
-0.000104131
-0.000165713
-0.000221848
-0.00027286
-0.000319041
-0.00036065
-0.0003979
-0.000430959
-0.000459942
-0.000484907
-0.000505859
-0.000522744
-0.000535453
-0.000543822
-0.000547639
-0.000546648
-0.000540553
-0.000529028
-0.000511723
)
;
    }
    outlet
    {
        type            calculated;
        value           nonuniform List<scalar> 
20
(
3.67671e-05
0.000104149
0.000165736
0.000221872
0.00027288
0.000319055
0.000360655
0.000397897
0.000430947
0.000459923
0.000484884
0.000505835
0.000522722
0.000535435
0.000543811
0.000547636
0.000546651
0.000540561
0.000529037
0.000511728
)
;
    }
    frontAndBack
    {
        type            empty;
        value           nonuniform 0();
    }
}


// ************************************************************************* //
