/*--------------------------------*- C++ -*----------------------------------*\
| =========                 |                                                 |
| \\      /  F ield         | OpenFOAM: The Open Source CFD Toolbox           |
|  \\    /   O peration     | Version:  v1706                                 |
|   \\  /    A nd           | Web:      www.OpenFOAM.com                      |
|    \\/     M anipulation  |                                                 |
\*---------------------------------------------------------------------------*/
FoamFile
{
    version     2.0;
    format      ascii;
    class       volVectorField;
    location    "0.2";
    object      U;
}
// * * * * * * * * * * * * * * * * * * * * * * * * * * * * * * * * * * * * * //

dimensions      [0 1 -1 0 0 0 0];


internalField   nonuniform List<vector> 
400
(
(0.735223 -2.98756e-06 0)
(0.735306 3.88348e-07 0)
(0.735331 -6.49036e-07 0)
(0.735308 -1.78518e-07 0)
(0.73537 4.25963e-08 0)
(0.73532 -5.34242e-07 0)
(0.735387 3.80602e-07 0)
(0.73533 -4.73292e-07 0)
(0.735382 4.82438e-07 0)
(0.735332 -3.34496e-07 0)
(0.735369 3.95531e-07 0)
(0.735332 -2.34062e-07 0)
(0.735357 2.6003e-07 0)
(0.735334 -1.53039e-07 0)
(0.735349 1.47554e-07 0)
(0.735338 -9.86192e-08 0)
(0.735344 1.04925e-07 0)
(0.735339 -6.91247e-08 0)
(0.735341 9.6915e-08 0)
(0.73534 -1.44504e-07 0)
(2.08269 -1.14473e-05 0)
(2.08286 -5.64766e-07 0)
(2.08298 -2.41673e-06 0)
(2.08288 -1.30763e-06 0)
(2.08308 -1.4078e-07 0)
(2.08291 -2.09903e-06 0)
(2.08312 1.14809e-06 0)
(2.08294 -1.4954e-06 0)
(2.0831 1.63213e-06 0)
(2.08295 -8.76134e-07 0)
(2.08305 1.37622e-06 0)
(2.08295 -6.01426e-07 0)
(2.08302 8.58126e-07 0)
(2.08296 -3.92679e-07 0)
(2.083 4.42418e-07 0)
(2.08297 -2.66796e-07 0)
(2.08299 3.32197e-07 0)
(2.08297 -2.05171e-07 0)
(2.08298 3.4211e-07 0)
(2.08298 -4.42576e-07 0)
(3.31434 -2.29127e-05 0)
(3.31452 -4.9431e-06 0)
(3.31474 -4.85446e-06 0)
(3.31454 -3.79743e-06 0)
(3.31488 -9.25507e-07 0)
(3.3146 -4.40842e-06 0)
(3.31494 1.64967e-06 0)
(3.31465 -2.38232e-06 0)
(3.3149 2.97093e-06 0)
(3.31466 -9.7581e-07 0)
(3.31483 2.5215e-06 0)
(3.31467 -6.12713e-07 0)
(3.31478 1.48343e-06 0)
(3.31468 -4.38109e-07 0)
(3.31475 6.65796e-07 0)
(3.3147 -3.04833e-07 0)
(3.31473 5.67049e-07 0)
(3.31471 -2.58447e-07 0)
(3.31471 6.24678e-07 0)
(3.31471 -7.68835e-07 0)
(4.43705 -3.41272e-05 0)
(4.43718 -1.18573e-05 0)
(4.43752 -7.46771e-06 0)
(4.43719 -7.13017e-06 0)
(4.43768 -2.26321e-06 0)
(4.43727 -6.88484e-06 0)
(4.43773 1.67992e-06 0)
(4.43734 -2.83687e-06 0)
(4.43767 4.12955e-06 0)
(4.43736 -4.85171e-07 0)
(4.43759 3.56752e-06 0)
(4.43737 -1.90022e-07 0)
(4.43752 1.98195e-06 0)
(4.43739 -2.16174e-07 0)
(4.43748 7.48923e-07 0)
(4.43741 -1.92835e-07 0)
(4.43745 7.4736e-07 0)
(4.43742 -2.41584e-07 0)
(4.43744 9.00834e-07 0)
(4.43743 -9.77606e-07 0)
(5.45728 -4.31369e-05 0)
(5.4573 -1.97525e-05 0)
(5.45776 -9.95807e-06 0)
(5.45731 -1.07001e-05 0)
(5.45792 -4.00829e-06 0)
(5.4574 -9.18672e-06 0)
(5.45795 1.26502e-06 0)
(5.45748 -2.81892e-06 0)
(5.45788 5.03432e-06 0)
(5.45751 5.02307e-07 0)
(5.45778 4.43742e-06 0)
(5.45753 5.83589e-07 0)
(5.4577 2.33267e-06 0)
(5.45755 2.18002e-07 0)
(5.45765 7.1324e-07 0)
(5.45758 3.54366e-08 0)
(5.45762 8.79397e-07 0)
(5.45759 -1.74544e-07 0)
(5.45761 1.15403e-06 0)
(5.45759 -1.06717e-06 0)
(6.3809 -4.88307e-05 0)
(6.38078 -2.71625e-05 0)
(6.38134 -1.20316e-05 0)
(6.38077 -1.39588e-05 0)
(6.38148 -5.91298e-06 0)
(6.38086 -1.1067e-05 0)
(6.3815 5.0711e-07 0)
(6.38095 -2.40124e-06 0)
(6.38141 5.6556e-06 0)
(6.381 1.81968e-06 0)
(6.3813 5.10751e-06 0)
(6.38102 1.58199e-06 0)
(6.38122 2.54922e-06 0)
(6.38105 7.88374e-07 0)
(6.38116 5.92843e-07 0)
(6.38108 3.2981e-07 0)
(6.38113 9.81524e-07 0)
(6.38109 -1.02921e-07 0)
(6.38112 1.37833e-06 0)
(6.3811 -1.02022e-06 0)
(7.21307 -5.06086e-05 0)
(7.21279 -3.29642e-05 0)
(7.21343 -1.33768e-05 0)
(7.21274 -1.64766e-05 0)
(7.21354 -7.73309e-06 0)
(7.21283 -1.23365e-05 0)
(7.21353 -4.72562e-07 0)
(7.21293 -1.6583e-06 0)
(7.21343 5.97409e-06 0)
(7.21298 3.30673e-06 0)
(7.21331 5.54828e-06 0)
(7.21302 2.68469e-06 0)
(7.21323 2.63523e-06 0)
(7.21305 1.42423e-06 0)
(7.21317 4.14133e-07 0)
(7.21308 6.50944e-07 0)
(7.21314 1.0631e-06 0)
(7.21309 -4.86216e-08 0)
(7.21313 1.55697e-06 0)
(7.2131 -8.45086e-07 0)
(7.95808 -4.83146e-05 0)
(7.95764 -3.64028e-05 0)
(7.95834 -1.37389e-05 0)
(7.95755 -1.79461e-05 0)
(7.9584 -9.23804e-06 0)
(7.95762 -1.28602e-05 0)
(7.95836 -1.54678e-06 0)
(7.95772 -6.69543e-07 0)
(7.95825 5.97751e-06 0)
(7.95779 4.80921e-06 0)
(7.95814 5.72826e-06 0)
(7.95784 3.77667e-06 0)
(7.95806 2.58886e-06 0)
(7.95788 2.0594e-06 0)
(7.958 1.96605e-07 0)
(7.95791 9.65893e-07 0)
(7.95797 1.12464e-06 0)
(7.95792 -2.08199e-08 0)
(7.95796 1.67001e-06 0)
(7.95793 -5.61456e-07 0)
(8.61926 -4.22676e-05 0)
(8.61868 -3.71422e-05 0)
(8.61942 -1.29959e-05 0)
(8.61855 -1.82163e-05 0)
(8.61943 -1.02481e-05 0)
(8.6186 -1.25813e-05 0)
(8.61936 -2.58894e-06 0)
(8.6187 4.77253e-07 0)
(8.61925 5.67306e-06 0)
(8.61878 6.18424e-06 0)
(8.61914 5.62777e-06 0)
(8.61883 4.75212e-06 0)
(8.61906 2.41038e-06 0)
(8.61888 2.63308e-06 0)
(8.61901 -4.34095e-08 0)
(8.61891 1.24754e-06 0)
(8.61898 1.16006e-06 0)
(8.61893 -1.72267e-08 0)
(8.61897 1.7017e-06 0)
(8.61894 -2.02238e-07 0)
(9.19891 -3.32078e-05 0)
(9.19823 -3.52733e-05 0)
(9.19897 -1.11961e-05 0)
(9.19806 -1.7308e-05 0)
(9.19894 -1.06604e-05 0)
(9.19809 -1.15318e-05 0)
(9.19884 -3.48936e-06 0)
(9.19817 1.68735e-06 0)
(9.19873 5.0883e-06 0)
(9.19826 7.31024e-06 0)
(9.19863 5.24518e-06 0)
(9.19834 5.52233e-06 0)
(9.19857 2.10592e-06 0)
(9.19838 3.09403e-06 0)
(9.19852 -2.91523e-07 0)
(9.19842 1.47531e-06 0)
(9.1985 1.15837e-06 0)
(9.19843 -2.75154e-08 0)
(9.19848 1.64512e-06 0)
(9.19845 1.91553e-07 0)
(9.69823 -2.21912e-05 0)
(9.69749 -3.12628e-05 0)
(9.69821 -8.55896e-06 0)
(9.69729 -1.54016e-05 0)
(9.69815 -1.04609e-05 0)
(9.69729 -9.83102e-06 0)
(9.69803 -4.16888e-06 0)
(9.69737 2.86233e-06 0)
(9.69792 4.26875e-06 0)
(9.69747 8.09532e-06 0)
(9.69784 4.60032e-06 0)
(9.69755 6.02298e-06 0)
(9.69778 1.69004e-06 0)
(9.69761 3.40459e-06 0)
(9.69774 -5.34277e-07 0)
(9.69764 1.63565e-06 0)
(9.69772 1.10676e-06 0)
(9.69766 -3.723e-08 0)
(9.69771 1.50371e-06 0)
(9.69768 5.76399e-07 0)
(10.1173 -1.04621e-05 0)
(10.1165 -2.58495e-05 0)
(10.1172 -5.43992e-06 0)
(10.1163 -1.28013e-05 0)
(10.1171 -9.71851e-06 0)
(10.1163 -7.67238e-06 0)
(10.117 -4.58558e-06 0)
(10.1164 3.90305e-06 0)
(10.1169 3.27528e-06 0)
(10.1165 8.48168e-06 0)
(10.1168 3.73658e-06 0)
(10.1166 6.21839e-06 0)
(10.1168 1.18796e-06 0)
(10.1166 3.54316e-06 0)
(10.1168 -7.57953e-07 0)
(10.1167 1.72149e-06 0)
(10.1167 9.95017e-07 0)
(10.1167 -3.21368e-08 0)
(10.1167 1.29047e-06 0)
(10.1167 9.11669e-07 0)
(10.455 6.84901e-07 0)
(10.4543 -1.99059e-05 0)
(10.4549 -2.26925e-06 0)
(10.4541 -9.87968e-06 0)
(10.4548 -8.56477e-06 0)
(10.454 -5.30085e-06 0)
(10.4547 -4.7334e-06 0)
(10.4541 4.71433e-06 0)
(10.4546 2.1819e-06 0)
(10.4542 8.44685e-06 0)
(10.4545 2.72096e-06 0)
(10.4543 6.10252e-06 0)
(10.4545 6.36522e-07 0)
(10.4544 3.50487e-06 0)
(10.4545 -9.47721e-07 0)
(10.4544 1.73109e-06 0)
(10.4545 8.20118e-07 0)
(10.4544 -2.14045e-09 0)
(10.4545 1.02563e-06 0)
(10.4544 1.16395e-06 0)
(10.7091 1.0045e-05 0)
(10.7085 -1.42838e-05 0)
(10.7091 5.25741e-07 0)
(10.7084 -7.01348e-06 0)
(10.709 -7.16274e-06 0)
(10.7083 -2.98154e-06 0)
(10.7089 -4.63376e-06 0)
(10.7084 5.21219e-06 0)
(10.7088 1.07392e-06 0)
(10.7085 8.00246e-06 0)
(10.7088 1.64161e-06 0)
(10.7086 5.69712e-06 0)
(10.7088 8.32887e-08 0)
(10.7086 3.3006e-06 0)
(10.7087 -1.08762e-06 0)
(10.7086 1.66661e-06 0)
(10.7087 5.90091e-07 0)
(10.7087 5.57497e-08 0)
(10.7087 7.33478e-07 0)
(10.7087 1.31019e-06 0)
(10.8765 1.66385e-05 0)
(10.876 -9.66436e-06 0)
(10.8765 2.59889e-06 0)
(10.8759 -4.51993e-06 0)
(10.8765 -5.67433e-06 0)
(10.8759 -9.64774e-07 0)
(10.8764 -4.3229e-06 0)
(10.8759 5.3329e-06 0)
(10.8763 4.53833e-08 0)
(10.876 7.19086e-06 0)
(10.8763 6.02262e-07 0)
(10.8761 5.04684e-06 0)
(10.8763 -4.16491e-07 0)
(10.8761 2.95431e-06 0)
(10.8763 -1.16151e-06 0)
(10.8762 1.53281e-06 0)
(10.8762 3.25994e-07 0)
(10.8762 1.35639e-07 0)
(10.8762 4.39542e-07 0)
(10.8762 1.3395e-06 0)
(10.9529 1.9815e-05 0)
(10.9525 -6.42501e-06 0)
(10.9529 3.74469e-06 0)
(10.9524 -2.60617e-06 0)
(10.9529 -4.23187e-06 0)
(10.9524 5.45653e-07 0)
(10.9528 -3.83602e-06 0)
(10.9524 5.04047e-06 0)
(10.9528 -8.02027e-07 0)
(10.9525 6.07739e-06 0)
(10.9528 -2.84247e-07 0)
(10.9526 4.21079e-06 0)
(10.9528 -8.0346e-07 0)
(10.9526 2.49748e-06 0)
(10.9527 -1.1541e-06 0)
(10.9527 1.33581e-06 0)
(10.9527 6.18633e-08 0)
(10.9527 2.22049e-07 0)
(10.9527 1.69797e-07 0)
(10.9527 1.25335e-06 0)
(10.933 1.92943e-05 0)
(10.9329 -4.52663e-06 0)
(10.9332 3.91772e-06 0)
(10.9328 -1.33624e-06 0)
(10.9332 -2.91758e-06 0)
(10.9328 1.41081e-06 0)
(10.9331 -3.18609e-06 0)
(10.9328 4.32206e-06 0)
(10.9331 -1.35518e-06 0)
(10.9329 4.73224e-06 0)
(10.9331 -8.98303e-07 0)
(10.9329 3.2458e-06 0)
(10.9331 -1.01468e-06 0)
(10.933 1.95953e-06 0)
(10.933 -1.04931e-06 0)
(10.933 1.08033e-06 0)
(10.933 -1.55909e-07 0)
(10.933 2.8883e-07 0)
(10.933 -4.81246e-08 0)
(10.933 1.06078e-06 0)
(10.8111 1.52552e-05 0)
(10.8111 -3.44293e-06 0)
(10.8113 3.22207e-06 0)
(10.811 -6.29272e-07 0)
(10.8113 -1.76771e-06 0)
(10.811 1.57347e-06 0)
(10.8112 -2.35133e-06 0)
(10.811 3.20156e-06 0)
(10.8112 -1.47427e-06 0)
(10.8111 3.23012e-06 0)
(10.8112 -1.11733e-06 0)
(10.8111 2.20048e-06 0)
(10.8112 -9.81951e-07 0)
(10.8112 1.35841e-06 0)
(10.8112 -8.30951e-07 0)
(10.8112 7.69492e-07 0)
(10.8112 -2.72791e-07 0)
(10.8112 2.9799e-07 0)
(10.8112 -1.71217e-07 0)
(10.8112 7.83162e-07 0)
(10.5806 8.78604e-06 0)
(10.5806 -2.34035e-06 0)
(10.5808 1.93889e-06 0)
(10.5806 -2.69313e-07 0)
(10.5808 -8.22385e-07 0)
(10.5806 1.11285e-06 0)
(10.5807 -1.34518e-06 0)
(10.5806 1.78786e-06 0)
(10.5807 -1.10775e-06 0)
(10.5807 1.69826e-06 0)
(10.5807 -8.63775e-07 0)
(10.5807 1.14737e-06 0)
(10.5807 -6.85063e-07 0)
(10.5807 7.40734e-07 0)
(10.5807 -5.03926e-07 0)
(10.5807 4.1904e-07 0)
(10.5807 -2.46392e-07 0)
(10.5807 2.26756e-07 0)
(10.5807 -1.76075e-07 0)
(10.5807 4.3344e-07 0)
(10.2345 2.57657e-06 0)
(10.2345 -8.39114e-07 0)
(10.2346 5.92105e-07 0)
(10.2345 -7.90225e-08 0)
(10.2346 -1.97201e-07 0)
(10.2345 3.74792e-07 0)
(10.2346 -4.06268e-07 0)
(10.2345 5.30162e-07 0)
(10.2346 -3.83261e-07 0)
(10.2345 4.74852e-07 0)
(10.2346 -3.1674e-07 0)
(10.2346 3.21443e-07 0)
(10.2346 -2.31282e-07 0)
(10.2346 2.1127e-07 0)
(10.2346 -1.5779e-07 0)
(10.2346 1.2297e-07 0)
(10.2346 -9.39772e-08 0)
(10.2346 8.14474e-08 0)
(10.2346 -6.37714e-08 0)
(10.2346 1.36178e-07 0)
)
;

boundaryField
{
    top
    {
        type            fixedValue;
        value           uniform (10 0 0);
    }
    bottom
    {
        type            fixedValue;
        value           uniform (0 0 0);
    }
    inlet
    {
        type            zeroGradient;
    }
    outlet
    {
        type            zeroGradient;
    }
    frontAndBack
    {
        type            empty;
    }
}


// ************************************************************************* //
