/*--------------------------------*- C++ -*----------------------------------*\
| =========                 |                                                 |
| \\      /  F ield         | OpenFOAM: The Open Source CFD Toolbox           |
|  \\    /   O peration     | Version:  v1706                                 |
|   \\  /    A nd           | Web:      www.OpenFOAM.com                      |
|    \\/     M anipulation  |                                                 |
\*---------------------------------------------------------------------------*/
FoamFile
{
    version     2.0;
    format      ascii;
    class       surfaceScalarField;
    location    "1.9";
    object      phi;
}
// * * * * * * * * * * * * * * * * * * * * * * * * * * * * * * * * * * * * * //

dimensions      [0 3 -1 0 0 0 0];
oriented        oriented;


internalField   nonuniform List<scalar> 
760
(
4.41637e-05
-6.84667e-12
4.41637e-05
-9.8737e-12
4.41637e-05
6.64154e-12
4.41637e-05
-1.14125e-11
4.41637e-05
1.02562e-11
4.41637e-05
-1.15872e-11
4.41637e-05
9.52412e-12
4.41637e-05
-9.69715e-12
4.41637e-05
6.35793e-12
4.41637e-05
-6.98876e-12
4.41637e-05
2.55265e-12
4.41637e-05
-5.19215e-12
4.41637e-05
-7.75379e-13
4.41637e-05
-5.35156e-12
4.41637e-05
-3.53031e-12
4.41637e-05
-7.66026e-12
4.41637e-05
-7.18105e-12
4.41637e-05
-8.63328e-12
4.41637e-05
-8.71177e-12
-1.71971e-11
0.000126158
-2.05124e-11
0.000126158
-2.53502e-11
0.000126158
8.50223e-12
0.000126158
-2.14605e-11
0.000126158
1.6721e-11
0.000126158
-2.01962e-11
0.000126158
1.57759e-11
0.000126158
-1.63732e-11
0.000126158
1.03415e-11
0.000126158
-1.15581e-11
0.000126158
3.84055e-12
0.000126158
-8.56468e-12
0.000126158
-1.78292e-12
0.000126158
-9.06268e-12
0.000126158
-6.48785e-12
0.000126158
-1.33558e-11
0.000126158
-1.34395e-11
0.000126158
-1.63675e-11
0.000126158
-1.96084e-11
-3.60159e-11
0.00020182
-3.55099e-11
0.00020182
-4.4354e-11
0.00020182
6.98483e-12
0.00020182
-3.04052e-11
0.00020182
1.98969e-11
0.00020182
-2.62731e-11
0.00020182
1.87784e-11
0.00020182
-2.04915e-11
0.00020182
1.1573e-11
0.00020182
-1.43406e-11
0.00020182
3.07955e-12
0.00020182
-1.11652e-11
0.00020182
-4.34478e-12
0.00020182
-1.29309e-11
0.00020182
-1.10882e-11
0.00020182
-2.00693e-11
0.00020182
-2.2302e-11
0.00020182
-2.73413e-11
0.00020182
-3.50052e-11
-5.66769e-11
0.000271149
-4.93392e-11
0.000271149
-6.31809e-11
0.000271149
2.43024e-12
0.000271149
-3.70129e-11
0.000271149
1.94338e-11
0.000271149
-2.91681e-11
0.000271149
1.82497e-11
0.000271149
-2.17681e-11
0.000271149
9.99134e-12
0.000271149
-1.52722e-11
0.000271149
3.94316e-13
0.000271149
-1.30004e-11
0.000271149
-8.26626e-12
0.000271149
-1.6891e-11
0.000271149
-1.70925e-11
0.000271149
-2.75394e-11
0.000271149
-3.32969e-11
0.000271149
-4.07379e-11
0.000271149
-5.24581e-11
-7.51584e-11
0.000334145
-5.99896e-11
0.000334145
-7.94708e-11
0.000334145
-3.36131e-12
0.000334145
-4.16506e-11
0.000334145
1.67573e-11
0.000334145
-2.98775e-11
0.000334145
1.55154e-11
0.000334145
-2.1184e-11
0.000334145
6.70813e-12
0.000334145
-1.50299e-11
0.000334145
-3.39001e-12
0.000334145
-1.43471e-11
0.000334145
-1.28978e-11
0.000334145
-2.08456e-11
0.000334145
-2.37881e-11
0.000334145
-3.53302e-11
0.000334145
-4.52981e-11
0.000334145
-5.55176e-11
0.000334145
-7.02103e-11
-9.1546e-11
0.000390809
-6.62558e-11
0.000390809
-9.10418e-11
0.000390809
-9.27471e-12
0.000390809
-4.3822e-11
0.000390809
1.25083e-11
0.000390809
-2.8484e-11
0.000390809
1.11843e-11
0.000390809
-1.89412e-11
0.000390809
2.36509e-12
0.000390809
-1.36564e-11
0.000390809
-7.56646e-12
0.000390809
-1.49075e-11
0.000390809
-1.73629e-11
0.000390809
-2.40025e-11
0.000390809
-2.98812e-11
0.000390809
-4.19604e-11
0.000390809
-5.61335e-11
0.000390809
-6.92922e-11
0.000390809
-8.57308e-11
-1.03837e-10
0.00044114
-6.7598e-11
0.00044114
-9.66995e-11
0.00044114
-1.41859e-11
0.00044114
-4.34292e-11
0.00044114
7.50024e-12
0.00044114
-2.53615e-11
0.00044114
5.9693e-12
0.00044114
-1.5463e-11
0.00044114
-2.43088e-12
0.00044114
-1.13995e-11
0.00044114
-1.16294e-11
0.00044114
-1.467e-11
0.00044114
-2.11744e-11
0.00044114
-2.60635e-11
0.00044114
-3.47242e-11
0.00044114
-4.67996e-11
0.00044114
-6.46872e-11
0.00044114
-8.08574e-11
0.00044114
-9.77126e-11
-1.11279e-10
0.000485138
-6.40915e-11
0.000485138
-9.60796e-11
0.000485138
-1.7351e-11
0.000485138
-4.05372e-11
0.000485138
2.35906e-12
0.000485138
-2.08729e-11
0.000485138
3.94637e-13
0.000485138
-1.11438e-11
0.000485138
-7.29108e-12
0.000485138
-8.5616e-12
0.000485138
-1.53524e-11
0.000485138
-1.38129e-11
0.000485138
-2.42314e-11
0.000485138
-2.71282e-11
0.000485138
-3.82664e-11
0.000485138
-4.99217e-11
0.000485138
-7.0815e-11
0.000485138
-8.99836e-11
0.000485138
-1.05942e-10
-1.13918e-10
0.000522803
-5.62994e-11
0.000522803
-8.9611e-11
0.000522803
-1.84021e-11
0.000522803
-3.54451e-11
0.000522803
-2.41452e-12
0.000522803
-1.54245e-11
0.000522803
-5.09739e-12
0.000522803
-6.36877e-12
0.000522803
-1.19092e-11
0.000522803
-5.41632e-12
0.000522803
-1.85888e-11
0.000522803
-1.25111e-11
0.000522803
-2.65141e-11
0.000522803
-2.73377e-11
0.000522803
-4.05627e-11
0.000522803
-5.14953e-11
0.000522803
-7.4572e-11
0.000522803
-9.65643e-11
0.000522803
-1.10492e-10
-1.12089e-10
0.000554136
-4.51562e-11
0.000554136
-7.83525e-11
0.000554136
-1.73924e-11
0.000554136
-2.86586e-11
0.000554136
-6.50671e-12
0.000554136
-9.43512e-12
0.000554136
-1.01783e-11
0.000554136
-1.46877e-12
0.000554136
-1.6068e-11
0.000554136
-2.19257e-12
0.000554136
-2.12608e-11
0.000554136
-1.09216e-11
0.000554136
-2.80602e-11
0.000554136
-2.68485e-11
0.000554136
-4.17377e-11
0.000554136
-5.17342e-11
0.000554136
-7.61562e-11
0.000554136
-1.00571e-10
0.000554136
-1.11578e-10
-1.06345e-10
0.000579136
-3.18527e-11
0.000579136
-6.38168e-11
0.000579136
-1.47336e-11
0.000579136
-2.0857e-11
0.000579136
-9.77261e-12
0.000579136
-3.33161e-12
0.000579136
-1.46105e-11
0.000579136
3.26715e-12
0.000579136
-1.96043e-11
0.000579136
9.29119e-13
0.000579136
-2.33135e-11
0.000579136
-9.15921e-12
0.000579136
-2.8902e-11
0.000579136
-2.57727e-11
0.000579136
-4.18922e-11
0.000579136
-5.07887e-11
0.000579136
-7.57546e-11
0.000579136
-1.01917e-10
0.000579136
-1.094e-10
-9.7323e-11
0.000597803
-1.77312e-11
0.000597803
-4.77695e-11
0.000597803
-1.10897e-11
0.000597803
-1.28242e-11
0.000597803
-1.21988e-11
0.000597803
2.45864e-12
0.000597803
-1.8224e-11
0.000597803
7.57933e-12
0.000597803
-2.23848e-11
0.000597803
3.80485e-12
0.000597803
-2.46917e-11
0.000597803
-7.30064e-12
0.000597803
-2.90458e-11
0.000597803
-2.41715e-11
0.000597803
-4.10778e-11
0.000597803
-4.87283e-11
0.000597803
-7.34988e-11
0.000597803
-1.00455e-10
0.000597803
-1.04097e-10
-8.56644e-11
0.000610138
-4.17959e-12
0.000610138
-3.20186e-11
0.000610138
-7.23347e-12
0.000610138
-5.35523e-12
0.000610138
-1.38437e-11
0.000610138
7.52471e-12
0.000610138
-2.08861e-11
0.000610138
1.12326e-11
0.000610138
-2.42845e-11
0.000610138
6.31285e-12
0.000610138
-2.53248e-11
0.000610138
-5.39598e-12
0.000610138
-2.84621e-11
0.000610138
-2.2062e-11
0.000610138
-3.92889e-11
0.000610138
-4.55489e-11
0.000610138
-6.94449e-11
0.000610138
-9.5999e-11
0.000610138
-9.57589e-11
-7.19449e-11
0.00061614
7.45085e-12
0.00061614
-1.82141e-11
0.00061614
-3.88704e-12
0.00061614
8.41208e-13
0.00061614
-1.47696e-11
0.00061614
1.14879e-11
0.00061614
-2.24686e-11
0.00061614
1.39963e-11
0.00061614
-2.51695e-11
0.00061614
8.32292e-12
0.00061614
-2.5125e-11
0.00061614
-3.50497e-12
0.00061614
-2.71036e-11
0.00061614
-1.94645e-11
0.00061614
-3.65041e-11
0.00061614
-4.12474e-11
0.00061614
-6.36391e-11
0.00061614
-8.84531e-11
0.00061614
-8.45552e-11
-5.67708e-11
0.000615809
1.59822e-11
0.000615809
-7.63086e-12
0.000615809
-1.58345e-12
0.000615809
5.25251e-12
0.000615809
-1.49965e-11
0.000615809
1.40511e-11
0.000615809
-2.28407e-11
0.000615809
1.56727e-11
0.000615809
-2.48953e-11
0.000615809
9.72393e-12
0.000615809
-2.39764e-11
0.000615809
-1.66564e-12
0.000615809
-2.48786e-11
0.000615809
-1.63607e-11
0.000615809
-3.26336e-11
0.000615809
-3.57585e-11
0.000615809
-5.60177e-11
0.000615809
-7.77214e-11
0.000615809
-7.0674e-11
-4.07866e-11
0.000609145
2.04655e-11
0.000609145
-9.82287e-13
0.000609145
-5.27249e-13
0.000609145
7.59843e-12
0.000609145
-1.44393e-11
0.000609145
1.49369e-11
0.000609145
-2.18244e-11
0.000609145
1.59919e-11
0.000609145
-2.32991e-11
0.000609145
1.02753e-11
0.000609145
-2.17954e-11
0.000609145
-9.2093e-14
0.000609145
-2.1816e-11
0.000609145
-1.29798e-11
0.000609145
-2.78377e-11
0.000609145
-2.94123e-11
0.000609145
-4.69584e-11
0.000609145
-6.44587e-11
0.000609145
-5.51031e-11
-2.52655e-11
0.000596149
2.04676e-11
0.000596149
1.76278e-12
0.000596149
-6.0544e-13
0.000596149
7.96176e-12
0.000596149
-1.30865e-11
0.000596149
1.41041e-11
0.000596149
-1.94629e-11
0.000596149
1.48393e-11
0.000596149
-2.0475e-11
0.000596149
9.76758e-12
0.000596149
-1.87735e-11
0.000596149
8.67013e-13
0.000596149
-1.82851e-11
0.000596149
-9.88955e-12
0.000596149
-2.27803e-11
0.000596149
-2.31637e-11
0.000596149
-3.7646e-11
0.000596149
-5.047e-11
0.000596149
-3.97705e-11
-1.22136e-11
0.00057682
1.58343e-11
0.00057682
1.60541e-12
0.00057682
-1.09253e-12
0.00057682
6.40822e-12
0.00057682
-1.02258e-11
0.00057682
1.109e-11
0.00057682
-1.48821e-11
0.00057682
1.16066e-11
0.00057682
-1.54836e-11
0.00057682
7.78339e-12
0.00057682
-1.40011e-11
0.00057682
1.18758e-12
0.00057682
-1.33658e-11
0.00057682
-6.62665e-12
0.00057682
-1.63236e-11
0.00057682
-1.59844e-11
0.00057682
-2.64316e-11
0.00057682
-3.45308e-11
0.00057682
-2.50796e-11
-3.73759e-12
0.000551158
7.72525e-12
0.000551158
3.40124e-13
0.000551158
-1.36264e-12
0.000551158
3.715e-12
0.000551158
-6.22239e-12
0.000551158
6.52031e-12
0.000551158
-8.80846e-12
0.000551158
6.79419e-12
0.000551158
-9.13865e-12
0.000551158
4.52413e-12
0.000551158
-8.30353e-12
0.000551158
6.47598e-13
0.000551158
-7.99151e-12
0.000551158
-3.95571e-12
0.000551158
-9.77419e-12
0.000551158
-9.42252e-12
0.000551158
-1.54947e-11
0.000551158
-1.94365e-11
0.000551158
-1.31218e-11
-1.10822e-12
0.000519164
0.000519164
0.000519164
0.000519164
0.000519164
0.000519164
0.000519164
0.000519164
0.000519164
0.000519164
0.000519164
0.000519164
0.000519164
0.000519164
0.000519164
0.000519164
0.000519164
0.000519164
0.000519164
)
;

boundaryField
{
    top
    {
        type            calculated;
        value           uniform 0;
    }
    bottom
    {
        type            calculated;
        value           uniform 0;
    }
    inlet
    {
        type            calculated;
        value           nonuniform List<scalar> 
20
(
-4.41637e-05
-0.000126158
-0.00020182
-0.000271149
-0.000334145
-0.000390809
-0.00044114
-0.000485138
-0.000522803
-0.000554136
-0.000579136
-0.000597803
-0.000610138
-0.00061614
-0.000615809
-0.000609145
-0.000596149
-0.00057682
-0.000551158
-0.000519164
)
;
    }
    outlet
    {
        type            calculated;
        value           nonuniform List<scalar> 
20
(
4.41637e-05
0.000126158
0.00020182
0.000271149
0.000334145
0.000390809
0.00044114
0.000485138
0.000522803
0.000554136
0.000579136
0.000597803
0.000610138
0.00061614
0.000615809
0.000609145
0.000596149
0.00057682
0.000551158
0.000519164
)
;
    }
    frontAndBack
    {
        type            empty;
        value           nonuniform 0();
    }
}


// ************************************************************************* //
