/*--------------------------------*- C++ -*----------------------------------*\
| =========                 |                                                 |
| \\      /  F ield         | OpenFOAM: The Open Source CFD Toolbox           |
|  \\    /   O peration     | Version:  v1706                                 |
|   \\  /    A nd           | Web:      www.OpenFOAM.com                      |
|    \\/     M anipulation  |                                                 |
\*---------------------------------------------------------------------------*/
FoamFile
{
    version     2.0;
    format      ascii;
    class       volVectorField;
    location    "1.9";
    object      U;
}
// * * * * * * * * * * * * * * * * * * * * * * * * * * * * * * * * * * * * * //

dimensions      [0 1 -1 0 0 0 0];


internalField   nonuniform List<vector> 
400
(
(0.883274 -3.1703e-09 0)
(0.883274 -4.09242e-09 0)
(0.883274 3.14763e-09 0)
(0.883274 -5.10361e-09 0)
(0.883274 4.7656e-09 0)
(0.883274 -5.30652e-09 0)
(0.883274 4.45739e-09 0)
(0.883274 -4.4886e-09 0)
(0.883274 3.02808e-09 0)
(0.883274 -3.24094e-09 0)
(0.883274 1.28199e-09 0)
(0.883274 -2.39635e-09 0)
(0.883274 -2.45844e-10 0)
(0.883274 -2.41496e-09 0)
(0.883274 -1.47985e-09 0)
(0.883274 -3.40282e-09 0)
(0.883274 -3.06301e-09 0)
(0.883274 -3.66991e-09 0)
(0.883274 -3.47452e-09 0)
(0.883274 -7.19313e-09 0)
(2.52317 -1.28829e-08 0)
(2.52317 -1.68164e-08 0)
(2.52317 8.36123e-09 0)
(2.52317 -1.65372e-08 0)
(2.52317 1.3886e-08 0)
(2.52317 -1.61991e-08 0)
(2.52317 1.28206e-08 0)
(2.52317 -1.33908e-08 0)
(2.52317 8.29424e-09 0)
(2.52317 -9.68889e-09 0)
(2.52317 2.8802e-09 0)
(2.52317 -7.4883e-09 0)
(2.52317 -1.92311e-09 0)
(2.52317 -8.18082e-09 0)
(2.52317 -6.12609e-09 0)
(2.52317 -1.21012e-08 0)
(2.52317 -1.20844e-08 0)
(2.52317 -1.46325e-08 0)
(2.52317 -1.53809e-08 0)
(2.52317 -2.73527e-08 0)
(4.0364 -2.76227e-08 0)
(4.0364 -3.43209e-08 0)
(4.0364 8.49131e-09 0)
(4.0364 -2.60676e-08 0)
(4.0364 1.88434e-08 0)
(4.0364 -2.36104e-08 0)
(4.0364 1.76816e-08 0)
(4.0364 -1.88103e-08 0)
(4.0364 1.12012e-08 0)
(4.0364 -1.32718e-08 0)
(4.0364 3.55071e-09 0)
(4.0364 -1.01476e-08 0)
(4.0364 -3.12945e-09 0)
(4.0364 -1.13146e-08 0)
(4.0364 -9.00406e-09 0)
(4.0364 -1.71709e-08 0)
(4.0364 -1.82399e-08 0)
(4.0364 -2.24084e-08 0)
(4.0364 -2.74154e-08 0)
(4.0364 -4.64199e-08 0)
(5.42298 -4.29266e-08 0)
(5.42298 -5.36209e-08 0)
(5.42298 4.61512e-09 0)
(5.42298 -3.33742e-08 0)
(5.42298 1.95071e-08 0)
(5.42298 -2.75224e-08 0)
(5.42298 1.83705e-08 0)
(5.42298 -2.10341e-08 0)
(5.42298 1.06783e-08 0)
(5.42298 -1.48067e-08 0)
(5.42298 1.6762e-09 0)
(5.42298 -1.21405e-08 0)
(5.42298 -6.38103e-09 0)
(5.42298 -1.50097e-08 0)
(5.42298 -1.42228e-08 0)
(5.42298 -2.39626e-08 0)
(5.42298 -2.80064e-08 0)
(5.42298 -3.43046e-08 0)
(5.42298 -4.39171e-08 0)
(5.42298 -6.58375e-08 0)
(6.68291 -5.5645e-08 0)
(6.68291 -7.18837e-08 0)
(6.68291 -7.63072e-10 0)
(6.68291 -3.93191e-08 0)
(6.68291 1.80124e-08 0)
(6.68291 -2.94922e-08 0)
(6.68291 1.68734e-08 0)
(6.68291 -2.14822e-08 0)
(6.68291 8.38331e-09 0)
(6.68291 -1.51686e-08 0)
(6.68291 -1.45182e-09 0)
(6.68291 -1.36757e-08 0)
(6.68291 -1.05389e-08 0)
(6.68291 -1.88382e-08 0)
(6.68291 -2.0393e-08 0)
(6.68291 -3.13753e-08 0)
(6.68291 -3.92475e-08 0)
(6.68291 -4.80751e-08 0)
(6.68291 -6.14003e-08 0)
(6.68291 -8.36138e-08 0)
(7.81618 -6.43508e-08 0)
(7.81618 -8.62347e-08 0)
(7.81618 -6.86374e-09 0)
(7.81618 -4.28877e-08 0)
(7.81618 1.45013e-08 0)
(7.81618 -2.92024e-08 0)
(7.81618 1.33492e-08 0)
(7.81618 -2.00771e-08 0)
(7.81618 4.5965e-09 0)
(7.81618 -1.4336e-08 0)
(7.81618 -5.39605e-09 0)
(7.81618 -1.45738e-08 0)
(7.81618 -1.50267e-08 0)
(7.81618 -2.23003e-08 0)
(7.81618 -2.6684e-08 0)
(7.81618 -3.84312e-08 0)
(7.81618 -5.05145e-08 0)
(7.81618 -6.21105e-08 0)
(7.81618 -7.80256e-08 0)
(7.81618 -9.80116e-08 0)
(8.8228 -6.82299e-08 0)
(8.8228 -9.50739e-08 0)
(8.8228 -1.24293e-08 0)
(8.8228 -4.39121e-08 0)
(8.8228 9.84787e-09 0)
(8.8228 -2.70056e-08 0)
(8.8228 8.59377e-09 0)
(8.8228 -1.72291e-08 0)
(8.8228 5.06862e-11 0)
(8.8228 -1.24997e-08 0)
(8.8228 -9.48044e-09 0)
(8.8228 -1.46852e-08 0)
(8.8228 -1.91069e-08 0)
(8.8228 -2.48247e-08 0)
(8.8228 -3.20534e-08 0)
(8.8228 -4.40244e-08 0)
(8.8228 -6.00615e-08 0)
(8.8228 -7.45639e-08 0)
(8.8228 -9.16812e-08 0)
(8.8228 -1.07873e-07 0)
(9.70276 -6.70859e-08 0)
(9.70276 -9.76309e-08 0)
(9.70276 -1.6529e-08 0)
(9.70276 -4.23459e-08 0)
(9.70276 4.75132e-09 0)
(9.70276 -2.32298e-08 0)
(9.70276 3.19683e-09 0)
(9.70276 -1.3331e-08 0)
(9.70276 -4.77511e-09 0)
(9.70276 -9.93686e-09 0)
(9.70276 -1.33642e-08 0)
(9.70276 -1.41113e-08 0)
(9.70276 -2.25191e-08 0)
(9.70276 -2.63484e-08 0)
(9.70276 -3.62048e-08 0)
(9.70276 -4.79401e-08 0)
(9.70276 -6.73389e-08 0)
(9.70276 -8.48055e-08 0)
(9.70276 -1.0172e-07 0)
(9.70276 -1.12915e-07 0)
(10.4561 -6.12553e-08 0)
(10.4561 -9.39655e-08 0)
(10.4561 -1.85834e-08 0)
(10.4561 -3.83687e-08 0)
(10.4561 -1.95787e-10 0)
(10.4561 -1.82696e-08 0)
(10.4561 -2.33266e-09 0)
(10.4561 -8.77685e-09 0)
(10.4561 -9.51051e-09 0)
(10.4561 -6.92876e-09 0)
(10.4561 -1.68336e-08 0)
(10.4561 -1.30067e-08 0)
(10.4561 -2.51648e-08 0)
(10.4561 -2.69489e-08 0)
(10.4561 -3.90792e-08 0)
(10.4561 -5.02277e-08 0)
(10.4561 -7.22062e-08 0)
(10.4561 -9.25631e-08 0)
(10.4561 -1.08016e-07 0)
(10.4561 -1.13264e-07 0)
(11.0827 -5.1516e-08 0)
(11.0827 -8.48508e-08 0)
(11.0827 -1.84511e-08 0)
(11.0827 -3.23778e-08 0)
(11.0827 -4.59018e-09 0)
(11.0827 -1.25364e-08 0)
(11.0827 -7.61173e-09 0)
(11.0827 -3.92651e-09 0)
(11.0827 -1.38983e-08 0)
(11.0827 -3.7294e-09 0)
(11.0827 -1.97827e-08 0)
(11.0827 -1.1544e-08 0)
(11.0827 -2.70632e-08 0)
(11.0827 -2.67871e-08 0)
(11.0827 -4.07836e-08 0)
(11.0827 -5.10992e-08 0)
(11.0827 -7.48185e-08 0)
(11.0827 -9.77999e-08 0)
(11.0827 -1.10751e-07 0)
(11.0827 -1.09387e-07 0)
(11.5827 -3.89633e-08 0)
(11.5827 -7.16145e-08 0)
(11.5827 -1.63908e-08 0)
(11.5827 -2.4978e-08 0)
(11.5827 -8.2065e-09 0)
(11.5827 -6.45629e-09 0)
(11.5827 -1.23569e-08 0)
(11.5827 9.08641e-10 0)
(11.5827 -1.77476e-08 0)
(11.5827 -5.45057e-10 0)
(11.5827 -2.21453e-08 0)
(11.5827 -9.86015e-09 0)
(11.5827 -2.82506e-08 0)
(11.5827 -2.59983e-08 0)
(11.5827 -4.14329e-08 0)
(11.5827 -5.07386e-08 0)
(11.5827 -7.53744e-08 0)
(11.5827 -1.00463e-07 0)
(11.5827 -1.10147e-07 0)
(11.5827 -1.01884e-07 0)
(11.9561 -2.48934e-08 0)
(11.9561 -5.59408e-08 0)
(11.9561 -1.29766e-08 0)
(11.9561 -1.69232e-08 0)
(11.9561 -1.09757e-08 0)
(11.9561 -4.63931e-10 0)
(11.9561 -1.63665e-08 0)
(11.9561 5.45118e-09 0)
(11.9561 -2.09101e-08 0)
(11.9561 2.46088e-09 0)
(11.9561 -2.38667e-08 0)
(11.9561 -8.05134e-09 0)
(11.9561 -2.87475e-08 0)
(11.9561 -2.46696e-08 0)
(11.9561 -4.11053e-08 0)
(11.9561 -4.92558e-08 0)
(11.9561 -7.40381e-08 0)
(11.9561 -1.00436e-07 0)
(11.9561 -1.0638e-07 0)
(11.9561 -9.1418e-08 0)
(12.2028 -1.07029e-08 0)
(12.2028 -3.96651e-08 0)
(12.2028 -8.96782e-09 0)
(12.2028 -9.03104e-09 0)
(12.2028 -1.29351e-08 0)
(12.2028 5.01115e-09 0)
(12.2028 -1.94922e-08 0)
(12.2028 9.45049e-09 0)
(12.2028 -2.32571e-08 0)
(12.2028 5.15413e-09 0)
(12.2028 -2.48846e-08 0)
(12.2028 -6.18133e-09 0)
(12.2028 -2.85434e-08 0)
(12.2028 -2.284e-08 0)
(12.2028 -3.9826e-08 0)
(12.2028 -4.66831e-08 0)
(12.2028 -7.09084e-08 0)
(12.2028 -9.75539e-08 0)
(12.2028 -9.95686e-08 0)
(12.2028 -7.86159e-08 0)
(12.3228 2.21444e-09 0)
(12.3228 -2.45633e-08 0)
(12.3228 -5.1528e-09 0)
(12.3228 -2.07965e-09 0)
(12.3228 -1.41623e-08 0)
(12.3228 9.56862e-09 0)
(12.3228 -2.16095e-08 0)
(12.3228 1.26758e-08 0)
(12.3228 -2.46609e-08 0)
(12.3228 7.41543e-09 0)
(12.3228 -2.51177e-08 0)
(12.3228 -4.29527e-09 0)
(12.3228 -2.75931e-08 0)
(12.3228 -2.05142e-08 0)
(12.3228 -3.75683e-08 0)
(12.3228 -4.29937e-08 0)
(12.3228 -6.60134e-08 0)
(12.3228 -9.16391e-08 0)
(12.3228 -8.98072e-08 0)
(12.3228 -6.40555e-08 0)
(12.3162 1.25596e-08 0)
(12.3162 -1.2147e-08 0)
(12.3162 -2.19521e-09 0)
(12.3162 3.28848e-09 0)
(12.3162 -1.47045e-08 0)
(12.3162 1.28479e-08 0)
(12.3162 -2.25865e-08 0)
(12.3162 1.48913e-08 0)
(12.3162 -2.4983e-08 0)
(12.3162 9.09908e-09 0)
(12.3162 -2.44754e-08 0)
(12.3162 -2.47392e-09 0)
(12.3162 -2.58556e-08 0)
(12.3162 -1.77388e-08 0)
(12.3162 -3.4331e-08 0)
(12.3162 -3.8226e-08 0)
(12.3162 -5.94395e-08 0)
(12.3162 -8.27094e-08 0)
(12.3162 -7.7384e-08 0)
(12.3162 -4.84352e-08 0)
(12.1829 1.92466e-08 0)
(12.1829 -3.46728e-09 0)
(12.1829 -4.92884e-10 0)
(12.1829 6.66468e-09 0)
(12.1829 -1.4546e-08 0)
(12.1829 1.4579e-08 0)
(12.1829 -2.2286e-08 0)
(12.1829 1.58881e-08 0)
(12.1829 -2.40809e-08 0)
(12.1829 1.00631e-08 0)
(12.1829 -2.2856e-08 0)
(12.1829 -8.0283e-10 0)
(12.1829 -2.32765e-08 0)
(12.1829 -1.45668e-08 0)
(12.1829 -3.00981e-08 0)
(12.1829 -3.24313e-08 0)
(12.1829 -5.12508e-08 0)
(12.1829 -7.09083e-08 0)
(12.1829 -6.2778e-08 0)
(12.1829 -3.26791e-08 0)
(11.923 2.14433e-08 0)
(11.923 1.10259e-09 0)
(11.923 -8.33486e-11 0)
(11.923 7.89534e-09 0)
(11.923 -1.35497e-08 0)
(11.923 1.44889e-08 0)
(11.923 -2.05072e-08 0)
(11.923 1.53347e-08 0)
(11.923 -2.17864e-08 0)
(11.923 9.97567e-09 0)
(11.923 -2.02038e-08 0)
(11.923 3.80322e-10 0)
(11.923 -1.99742e-08 0)
(11.923 -1.14033e-08 0)
(11.923 -2.52113e-08 0)
(11.923 -2.6217e-08 0)
(11.923 -4.21367e-08 0)
(11.923 -5.73758e-08 0)
(11.923 -4.75339e-08 0)
(11.923 -1.85678e-08 0)
(11.5364 1.90005e-08 0)
(11.5364 2.02524e-09 0)
(11.5364 -7.06187e-10 0)
(11.5364 7.39855e-09 0)
(11.5364 -1.18704e-08 0)
(11.5364 1.29104e-08 0)
(11.5364 -1.75604e-08 0)
(11.5364 1.35266e-08 0)
(11.5364 -1.84112e-08 0)
(11.5364 8.99174e-09 0)
(11.5364 -1.67902e-08 0)
(11.5364 1.05573e-09 0)
(11.5364 -1.62123e-08 0)
(11.5364 -8.45317e-09 0)
(11.5364 -2.00164e-08 0)
(11.5364 -2.00242e-08 0)
(11.5364 -3.27035e-08 0)
(11.5364 -4.32445e-08 0)
(11.5364 -3.2574e-08 0)
(11.5364 -7.60996e-09 0)
(11.0232 1.22853e-08 0)
(11.0232 1.07524e-09 0)
(11.0232 -1.33051e-09 0)
(11.0232 5.18734e-09 0)
(11.0232 -8.51747e-09 0)
(11.0232 8.9904e-09 0)
(11.0232 -1.22463e-08 0)
(11.0232 9.31047e-09 0)
(11.0232 -1.27705e-08 0)
(11.0232 6.06561e-09 0)
(11.0232 -1.16845e-08 0)
(11.0232 5.11465e-10 0)
(11.0232 -1.13906e-08 0)
(11.0232 -6.10784e-09 0)
(11.0232 -1.41593e-08 0)
(11.0232 -1.40953e-08 0)
(11.0232 -2.27822e-08 0)
(11.0232 -2.95223e-08 0)
(11.0232 -2.09355e-08 0)
(11.0232 -3.21374e-09 0)
(10.3833 3.87339e-09 0)
(10.3833 1.54518e-10 0)
(10.3833 -5.4949e-10 0)
(10.3833 1.69187e-09 0)
(10.3833 -2.81095e-09 0)
(10.3833 3.02193e-09 0)
(10.3833 -4.02052e-09 0)
(10.3833 3.20116e-09 0)
(10.3833 -4.17182e-09 0)
(10.3833 2.20221e-09 0)
(10.3833 -3.74513e-09 0)
(10.3833 4.61575e-10 0)
(10.3833 -3.50672e-09 0)
(10.3833 -1.56918e-09 0)
(10.3833 -4.17806e-09 0)
(10.3833 -3.90671e-09 0)
(10.3833 -6.58794e-09 0)
(10.3833 -8.23869e-09 0)
(10.3833 -5.36693e-09 0)
(10.3833 -1.04619e-10 0)
)
;

boundaryField
{
    top
    {
        type            fixedValue;
        value           uniform (10 0 0);
    }
    bottom
    {
        type            fixedValue;
        value           uniform (0 0 0);
    }
    inlet
    {
        type            zeroGradient;
    }
    outlet
    {
        type            zeroGradient;
    }
    frontAndBack
    {
        type            empty;
    }
}


// ************************************************************************* //
