/*--------------------------------*- C++ -*----------------------------------*\
| =========                 |                                                 |
| \\      /  F ield         | OpenFOAM: The Open Source CFD Toolbox           |
|  \\    /   O peration     | Version:  v1706                                 |
|   \\  /    A nd           | Web:      www.OpenFOAM.com                      |
|    \\/     M anipulation  |                                                 |
\*---------------------------------------------------------------------------*/
FoamFile
{
    version     2.0;
    format      ascii;
    class       surfaceScalarField;
    location    "0.7";
    object      phi;
}
// * * * * * * * * * * * * * * * * * * * * * * * * * * * * * * * * * * * * * //

dimensions      [0 3 -1 0 0 0 0];
oriented        oriented;


internalField   nonuniform List<scalar> 
760
(
4.41019e-05
2.52523e-10
4.41018e-05
1.76793e-10
4.41019e-05
-1.29599e-10
4.41019e-05
-5.86103e-12
4.41019e-05
-1.93936e-11
4.41019e-05
3.52899e-11
4.41019e-05
-4.6304e-12
4.41019e-05
3.31743e-12
4.41019e-05
-1.47175e-11
4.41019e-05
1.05524e-11
4.41019e-05
1.35846e-11
4.41019e-05
2.34313e-12
4.41019e-05
-2.54785e-11
4.41018e-05
1.27295e-11
4.41019e-05
7.53154e-12
4.41019e-05
2.73606e-12
4.41019e-05
-2.8106e-11
4.41019e-05
1.46514e-11
4.41018e-05
1.0524e-10
-8.92742e-11
0.000125975
7.51041e-10
0.000125974
6.07412e-10
0.000125974
-3.07275e-10
0.000125974
-2.21095e-11
0.000125974
-4.49325e-11
0.000125974
5.3107e-11
0.000125974
-6.49327e-12
0.000125974
1.57259e-11
0.000125974
-1.78322e-11
0.000125974
2.8222e-11
0.000125974
1.75825e-11
0.000125974
6.5658e-12
0.000125974
-4.22206e-11
0.000125974
2.62402e-11
0.000125974
3.47236e-14
0.000125974
2.21147e-11
0.000125974
-8.51236e-11
0.000125974
7.21965e-11
0.000125974
2.92512e-10
-2.19646e-10
0.000201519
1.35656e-09
0.000201518
1.21197e-09
0.000201518
-4.3286e-10
0.000201519
-5.17623e-11
0.000201519
-5.62804e-11
0.000201519
5.35825e-11
0.000201519
-4.44175e-12
0.000201519
2.88151e-11
0.000201519
-1.17035e-11
0.000201519
4.69031e-11
0.000201519
2.16286e-11
0.000201518
1.68946e-11
0.000201518
-4.85164e-11
0.000201518
3.97051e-11
0.000201519
-1.80089e-11
0.000201518
5.41469e-11
0.000201519
-1.68437e-10
0.000201518
1.5261e-10
0.000201518
5.16281e-10
-3.34594e-10
0.000270738
1.97338e-09
0.000270737
1.90126e-09
0.000270737
-4.6932e-10
0.000270737
-7.97937e-11
0.000270737
-4.93407e-11
0.000270737
5.26226e-11
0.000270737
1.59632e-12
0.000270737
3.99122e-11
0.000270737
-3.36332e-12
0.000270737
6.38421e-11
0.000270737
3.03514e-11
0.000270737
3.21817e-11
0.000270737
-5.19006e-11
0.000270737
5.56112e-11
0.000270737
-3.87821e-11
0.000270737
9.45697e-11
0.000270737
-2.67907e-10
0.000270737
2.35145e-10
0.000270737
7.60823e-10
-4.18903e-10
0.000333634
2.50827e-09
0.000333634
2.57594e-09
0.000333634
-4.02041e-10
0.000333634
-8.83243e-11
0.000333634
-2.28731e-11
0.000333634
5.60731e-11
0.000333634
1.30029e-11
0.000333634
4.97749e-11
0.000333634
6.41566e-12
0.000333634
7.73184e-11
0.000333634
3.96414e-11
0.000333634
4.82029e-11
0.000333634
-5.35895e-11
0.000333634
7.28084e-11
0.000333634
-5.94837e-11
0.000333634
1.40075e-10
0.000333634
-3.67624e-10
0.000333634
3.07361e-10
0.000333633
1.00414e-09
-4.6156e-10
0.000390211
2.88931e-09
0.00039021
3.1438e-09
0.00039021
-2.39704e-10
0.00039021
-6.65374e-11
0.00039021
2.32109e-11
0.00039021
6.71015e-11
0.00039021
3.01516e-11
0.00039021
5.89298e-11
0.00039021
1.71713e-11
0.00039021
8.67806e-11
0.00039021
4.76328e-11
0.00039021
6.24303e-11
0.00039021
-5.43956e-11
0.00039021
8.9248e-11
0.00039021
-7.78839e-11
0.00039021
1.85297e-10
0.00039021
-4.54912e-10
0.00039021
3.61007e-10
0.00039021
1.22348e-09
-4.57943e-10
0.000440469
3.07052e-09
0.000440468
3.53075e-09
0.000440468
-8.15766e-12
0.000440468
-1.22565e-11
0.000440468
8.67189e-11
0.000440468
8.6349e-11
0.000440468
5.22873e-11
0.000440468
6.73611e-11
0.000440468
2.83802e-11
0.000440468
9.20908e-11
0.000440468
5.36034e-11
0.000440468
7.33495e-11
0.000440468
-5.46018e-11
0.000440468
1.02767e-10
0.000440468
-9.19717e-11
0.000440468
2.24546e-10
0.000440468
-5.20533e-10
0.000440468
3.92224e-10
0.000440468
1.39777e-09
-4.0989e-10
0.000484411
3.03424e-09
0.000484411
3.68979e-09
0.00048441
2.5731e-10
0.00048441
6.85423e-11
0.00048441
1.62642e-10
0.00048441
1.12149e-10
0.00048441
7.76001e-11
0.00048441
7.44891e-11
0.00048441
3.93193e-11
0.00048441
9.32192e-11
0.00048441
5.73838e-11
0.00048441
8.00996e-11
0.00048441
-5.41213e-11
0.00048441
1.11532e-10
0.00048441
-1.00045e-10
0.00048441
2.52993e-10
0.00048441
-5.58933e-10
0.00048441
4.01032e-10
0.00048441
1.51004e-09
-3.24749e-10
0.000522038
2.79055e-09
0.000522038
3.60594e-09
0.000522038
5.19861e-10
0.000522038
1.63895e-10
0.000522037
2.43429e-10
0.000522037
1.4093e-10
0.000522037
1.03392e-10
0.000522037
7.9287e-11
0.000522037
4.90793e-11
0.000522037
9.01683e-11
0.000522037
5.90528e-11
0.000522037
8.23095e-11
0.000522037
-5.26983e-11
0.000522037
1.14302e-10
0.000522037
-1.00974e-10
0.000522037
2.67451e-10
0.000522037
-5.682e-10
0.000522037
3.9018e-10
0.000522037
1.54944e-09
-2.13747e-10
0.000553351
2.37398e-09
0.000553351
3.2967e-09
0.000553351
7.47499e-10
0.000553351
2.58828e-10
0.000553351
3.19922e-10
0.000553351
1.67881e-10
0.000553351
1.26403e-10
0.000553351
8.05072e-11
0.000553351
5.6661e-11
0.000553351
8.30225e-11
0.000553351
5.88017e-11
0.000553351
8.00487e-11
0.000553351
-5.00912e-11
0.000553351
1.10593e-10
0.000553351
-9.44314e-11
0.000553351
2.66752e-10
0.000553351
-5.4969e-10
0.000553351
3.63831e-10
0.000553351
1.51236e-09
-9.01445e-11
0.000578351
1.83796e-09
0.000578351
2.80808e-09
0.000578351
9.17067e-10
0.000578351
3.38369e-10
0.000578351
3.82725e-10
0.000578351
1.87855e-10
0.000578351
1.43287e-10
0.000578351
7.69879e-11
0.000578351
6.1135e-11
0.000578351
7.20567e-11
0.000578351
5.68911e-11
0.000578351
7.38242e-11
0.000578351
-4.61951e-11
0.000578351
1.0073e-10
0.000578351
-8.10117e-11
0.000578351
2.51727e-10
0.000578351
-5.07386e-10
0.000578351
3.26411e-10
0.000578351
1.40265e-09
3.25116e-11
0.000597037
1.24767e-09
0.000597038
2.20689e-09
0.000597038
1.0156e-09
0.000597038
3.89989e-10
0.000597038
4.23656e-10
0.000597038
1.96377e-10
0.000597038
1.51181e-10
0.000597038
6.79998e-11
0.000597038
6.18287e-11
0.000597038
5.7859e-11
0.000597038
5.36614e-11
0.000597038
6.45693e-11
0.000597038
-4.10995e-11
0.000597038
8.57964e-11
0.000597038
-6.21825e-11
0.000597038
2.24881e-10
0.000597038
-4.47135e-10
0.000597038
2.81834e-10
0.000597038
1.23104e-09
1.41846e-10
0.00060941
6.72036e-10
0.000609411
1.57058e-09
0.000609411
1.03944e-09
0.000609411
4.05258e-10
0.000609411
4.37034e-10
0.000609411
1.90604e-10
0.000609411
1.48273e-10
0.000609411
5.35717e-11
0.000609411
5.8504e-11
0.000609411
4.14315e-11
0.000609411
4.95596e-11
0.000609411
5.35864e-11
0.000609411
-3.50899e-11
0.000609411
6.74633e-11
0.000609411
-4.00992e-11
0.000609411
1.8985e-10
0.000609411
-3.75862e-10
0.000609411
2.33198e-10
0.000609411
1.01403e-09
2.27726e-10
0.000615468
1.75366e-10
0.000615468
9.75731e-10
0.000615468
9.9193e-10
0.000615468
3.80836e-10
0.000615469
4.20607e-10
0.000615469
1.70074e-10
0.000615469
1.34247e-10
0.000615469
3.47338e-11
0.000615469
5.14842e-11
0.000615469
2.42369e-11
0.000615469
4.5146e-11
0.000615469
4.24092e-11
0.000615469
-2.86246e-11
0.000615469
4.77305e-11
0.000615469
-1.73237e-11
0.000615469
1.50761e-10
0.000615469
-3.00826e-10
0.000615469
1.82915e-10
0.000615469
7.72456e-10
2.82945e-10
0.00061521
-1.90662e-10
0.00061521
4.86779e-10
0.00061521
8.80967e-10
0.00061521
3.19092e-10
0.00061521
3.76022e-10
0.00061521
1.37133e-10
0.00061521
1.10545e-10
0.00061521
1.3629e-11
0.00061521
4.1698e-11
0.00061521
8.1599e-12
0.00061521
4.10241e-11
0.00061521
3.25529e-11
0.00061521
-2.23297e-11
0.00061521
2.86128e-11
0.00061521
3.4932e-12
0.00061521
1.11592e-10
0.00061521
-2.28869e-10
0.00061521
1.33199e-10
0.000615211
5.29796e-10
3.03565e-10
0.000608633
-3.94366e-10
0.000608634
1.46103e-10
0.000608634
7.1742e-10
0.000608634
2.2867e-10
0.000608634
3.08775e-10
0.000608634
9.69888e-11
0.000608634
8.03867e-11
0.000608634
-6.54012e-12
0.000608634
3.05962e-11
0.000608634
-4.6589e-12
0.000608634
3.76202e-11
0.000608634
2.5099e-11
0.000608634
-1.70616e-11
0.000608634
1.18441e-11
0.000608634
1.99501e-11
0.000608634
7.56711e-11
0.000608634
-1.65572e-10
0.000608634
8.67708e-11
0.000608635
3.10545e-10
2.88991e-10
0.000595737
-4.30325e-10
0.000595737
-3.32962e-11
0.000595738
5.155e-10
0.000595738
1.25038e-10
0.000595738
2.27481e-10
0.000595738
5.74076e-11
0.000595738
4.85598e-11
0.000595738
-2.17343e-11
0.000595738
1.993e-11
0.000595738
-1.21905e-11
0.000595738
3.46399e-11
0.000595738
2.0018e-11
0.000595738
-1.40517e-11
0.000595738
-1.24788e-12
0.000595738
3.02723e-11
0.000595738
4.54919e-11
0.000595738
-1.14141e-10
0.000595738
4.76706e-11
0.000595738
1.38557e-10
2.41808e-10
0.000576518
-3.2466e-10
0.000576518
-7.19307e-11
0.000576519
2.96076e-10
0.000576519
3.0922e-11
0.000576519
1.42133e-10
0.000576519
2.80499e-11
0.000576519
2.11967e-11
0.000576519
-2.75025e-11
0.000576519
1.11497e-11
0.000576519
-1.33255e-11
0.000576519
3.00425e-11
0.000576519
1.51768e-11
0.000576519
-1.50182e-11
0.000576519
-9.4482e-12
0.000576519
3.39557e-11
0.000576519
2.30793e-11
0.000576519
-7.35619e-11
0.000576519
2.20705e-11
0.000576519
3.52119e-11
1.6754e-10
0.000550974
-1.3571e-10
0.000550974
-2.11589e-11
0.000550974
9.42791e-11
0.000550974
-1.9805e-11
0.000550975
6.36218e-11
0.000550975
1.80171e-11
0.000550975
1.82879e-12
0.000550975
-2.16864e-11
0.000550975
4.30773e-12
0.000550975
-7.28996e-12
0.000550975
2.22622e-11
0.000550975
9.2172e-12
0.000550975
-1.98617e-11
0.000550975
-1.08627e-11
0.000550975
3.14854e-11
0.000550975
8.62026e-12
0.000550975
-4.41607e-11
0.000550975
7.46529e-12
0.000550975
1.30782e-11
7.52094e-11
0.000519102
0.000519102
0.000519102
0.000519102
0.000519102
0.000519102
0.000519102
0.000519102
0.000519102
0.000519102
0.000519102
0.000519102
0.000519102
0.000519102
0.000519102
0.000519102
0.000519102
0.000519102
0.000519102
)
;

boundaryField
{
    top
    {
        type            calculated;
        value           uniform 0;
    }
    bottom
    {
        type            calculated;
        value           uniform 0;
    }
    inlet
    {
        type            calculated;
        value           nonuniform List<scalar> 
20
(
-4.41022e-05
-0.000125975
-0.00020152
-0.000270739
-0.000333635
-0.000390211
-0.000440469
-0.000484411
-0.000522038
-0.000553351
-0.00057835
-0.000597037
-0.000609409
-0.000615467
-0.000615209
-0.000608633
-0.000595737
-0.000576518
-0.000550974
-0.000519102
)
;
    }
    outlet
    {
        type            calculated;
        value           nonuniform List<scalar> 
20
(
4.41018e-05
0.000125974
0.000201518
0.000270737
0.000333633
0.00039021
0.000440468
0.00048441
0.000522037
0.000553351
0.000578351
0.000597038
0.000609411
0.000615469
0.000615211
0.000608635
0.000595738
0.000576519
0.000550975
0.000519102
)
;
    }
    frontAndBack
    {
        type            empty;
        value           nonuniform 0();
    }
}


// ************************************************************************* //
