/*--------------------------------*- C++ -*----------------------------------*\
| =========                 |                                                 |
| \\      /  F ield         | OpenFOAM: The Open Source CFD Toolbox           |
|  \\    /   O peration     | Version:  v1706                                 |
|   \\  /    A nd           | Web:      www.OpenFOAM.com                      |
|    \\/     M anipulation  |                                                 |
\*---------------------------------------------------------------------------*/
FoamFile
{
    version     2.0;
    format      ascii;
    class       volVectorField;
    location    "0.7";
    object      U;
}
// * * * * * * * * * * * * * * * * * * * * * * * * * * * * * * * * * * * * * //

dimensions      [0 1 -1 0 0 0 0];


internalField   nonuniform List<vector> 
400
(
(0.882042 1.14986e-07 0)
(0.882035 6.63613e-08 0)
(0.882036 -7.20957e-08 0)
(0.882037 -1.32779e-09 0)
(0.882037 -1.26349e-08 0)
(0.882037 1.67663e-08 0)
(0.882038 -9.86785e-10 0)
(0.882037 4.01664e-09 0)
(0.882038 -6.48677e-09 0)
(0.882037 5.12885e-09 0)
(0.882038 3.30052e-09 0)
(0.882037 -2.93034e-10 0)
(0.882038 -1.29093e-08 0)
(0.882037 4.85996e-09 0)
(0.882037 3.29366e-09 0)
(0.882037 1.16835e-09 0)
(0.882037 -5.56456e-09 0)
(0.882038 1.16999e-08 0)
(0.882036 4.56413e-08 0)
(0.882036 -4.68747e-08 0)
(2.5195 4.59183e-07 0)
(2.51948 3.42865e-07 0)
(2.51948 -2.19522e-07 0)
(2.51949 -7.76337e-09 0)
(2.51949 -3.09468e-08 0)
(2.51949 4.6541e-08 0)
(2.51949 -8.57842e-09 0)
(2.51949 6.67949e-09 0)
(2.51949 -1.83816e-08 0)
(2.51949 1.81364e-08 0)
(2.51949 1.57041e-08 0)
(2.51948 3.50859e-09 0)
(2.51949 -3.48004e-08 0)
(2.51948 1.91132e-08 0)
(2.51949 7.99859e-09 0)
(2.51949 9.31545e-09 0)
(2.51949 -5.39193e-08 0)
(2.51949 3.1722e-08 0)
(2.51948 1.85082e-07 0)
(2.51948 -1.52149e-07 0)
(4.03039 1.03714e-06 0)
(4.03037 8.69892e-07 0)
(4.03037 -3.91768e-07 0)
(4.03037 -3.7102e-08 0)
(4.03037 -5.55053e-08 0)
(4.03037 5.41911e-08 0)
(4.03037 -4.98411e-09 0)
(4.03037 2.34202e-08 0)
(4.03037 -1.5584e-08 0)
(4.03037 3.76117e-08 0)
(4.03037 1.80633e-08 0)
(4.03037 1.05148e-08 0)
(4.03037 -4.68992e-08 0)
(4.03037 3.15604e-08 0)
(4.03037 -7.80155e-09 0)
(4.03037 3.50225e-08 0)
(4.03037 -1.18806e-07 0)
(4.03037 1.1443e-07 0)
(4.03037 3.92764e-07 0)
(4.03037 -2.83415e-07 0)
(5.41477 1.67071e-06 0)
(5.41475 1.54451e-06 0)
(5.41474 -4.75913e-07 0)
(5.41475 -6.86005e-08 0)
(5.41475 -5.7043e-08 0)
(5.41475 5.24171e-08 0)
(5.41475 -3.36927e-09 0)
(5.41475 3.46932e-08 0)
(5.41475 -7.77358e-09 0)
(5.41475 5.59669e-08 0)
(5.41475 2.53209e-08 0)
(5.41474 2.39262e-08 0)
(5.41475 -5.04409e-08 0)
(5.41474 4.66421e-08 0)
(5.41475 -2.78593e-08 0)
(5.41474 7.26862e-08 0)
(5.41475 -2.15859e-07 0)
(5.41475 1.94659e-07 0)
(5.41474 6.35431e-07 0)
(5.41474 -3.85734e-07 0)
(6.6727 2.27163e-06 0)
(6.67268 2.25438e-06 0)
(6.67267 -4.62304e-07 0)
(6.67267 -9.18791e-08 0)
(6.67268 -4.14649e-08 0)
(6.67267 5.26771e-08 0)
(6.67268 5.82964e-09 0)
(6.67267 4.54261e-08 0)
(6.67268 1.48075e-09 0)
(6.67267 7.16262e-08 0)
(6.67268 3.51623e-08 0)
(6.67267 4.03075e-08 0)
(6.67268 -5.28764e-08 0)
(6.67267 6.3847e-08 0)
(6.67268 -4.9647e-08 0)
(6.67267 1.16755e-07 0)
(6.67267 -3.18844e-07 0)
(6.67267 2.75804e-07 0)
(6.67267 8.86333e-07 0)
(6.67267 -4.51719e-07 0)
(7.80422 2.74433e-06 0)
(7.80421 2.89813e-06 0)
(7.8042 -3.41312e-07 0)
(7.8042 -8.70664e-08 0)
(7.8042 -5.00907e-09 0)
(7.80419 5.93912e-08 0)
(7.8042 2.01685e-08 0)
(7.80419 5.48228e-08 0)
(7.8042 1.18521e-08 0)
(7.80419 8.31396e-08 0)
(7.8042 4.41172e-08 0)
(7.80419 5.58994e-08 0)
(7.8042 -5.39866e-08 0)
(7.80419 8.13285e-08 0)
(7.8042 -6.98174e-08 0)
(7.80419 1.63633e-07 0)
(7.8042 -4.1501e-07 0)
(7.8042 3.39855e-07 0)
(7.80419 1.12336e-06 0)
(7.80419 -4.70789e-07 0)
(8.80938 3.03315e-06 0)
(8.80938 3.39165e-06 0)
(8.80936 -1.35109e-07 0)
(8.80936 -4.82983e-08 0)
(8.80937 5.07048e-08 0)
(8.80936 7.47546e-08 0)
(8.80937 4.01569e-08 0)
(8.80936 6.3668e-08 0)
(8.80937 2.29842e-08 0)
(8.80936 9.05764e-08 0)
(8.80937 5.12136e-08 0)
(8.80936 6.87564e-08 0)
(8.80937 -5.45334e-08 0)
(8.80935 9.69017e-08 0)
(8.80937 -8.65913e-08 0)
(8.80936 2.07239e-07 0)
(8.80936 -4.9324e-07 0)
(8.80936 3.82315e-07 0)
(8.80936 1.32508e-06 0)
(8.80935 -4.43229e-07 0)
(9.68821 3.10624e-06 0)
(9.68822 3.67292e-06 0)
(9.68821 1.23735e-07 0)
(9.6882 2.20658e-08 0)
(9.68821 1.22131e-07 0)
(9.6882 9.80532e-08 0)
(9.68821 6.44704e-08 0)
(9.6882 7.16621e-08 0)
(9.68821 3.42714e-08 0)
(9.6882 9.38171e-08 0)
(9.68821 5.61083e-08 0)
(9.6882 7.77549e-08 0)
(9.68821 -5.44811e-08 0)
(9.6882 1.08521e-07 0)
(9.68821 -9.81101e-08 0)
(9.6882 2.42122e-07 0)
(9.68821 -5.46105e-07 0)
(9.6882 4.01515e-07 0)
(9.6882 1.47191e-06 0)
(9.6882 -3.73895e-07 0)
(10.4408 2.96041e-06 0)
(10.4408 3.71021e-06 0)
(10.4408 3.97076e-07 0)
(10.4408 1.14126e-07 0)
(10.4408 2.02799e-07 0)
(10.4407 1.26538e-07 0)
(10.4408 9.08198e-08 0)
(10.4407 7.79331e-08 0)
(10.4408 4.48655e-08 0)
(10.4407 9.28674e-08 0)
(10.4408 5.88138e-08 0)
(10.4407 8.22941e-08 0)
(10.4408 -5.36294e-08 0)
(10.4407 1.14575e-07 0)
(10.4408 -1.02854e-07 0)
(10.4407 2.64129e-07 0)
(10.4408 -5.69968e-07 0)
(10.4407 3.99308e-07 0)
(10.4408 1.54952e-06 0)
(10.4407 -2.72554e-07 0)
(11.067 2.61903e-06 0)
(11.067 3.50525e-06 0)
(11.067 6.49187e-07 0)
(11.067 2.13656e-07 0)
(11.067 2.84031e-07 0)
(11.067 1.55811e-07 0)
(11.067 1.16117e-07 0)
(11.067 8.12666e-08 0)
(11.067 5.37809e-08 0)
(11.067 8.77357e-08 0)
(11.067 5.94756e-08 0)
(11.067 8.22193e-08 0)
(11.067 -5.16844e-08 0)
(11.067 1.1418e-07 0)
(11.067 -1.00041e-07 0)
(11.067 2.71039e-07 0)
(11.067 -5.64674e-07 0)
(11.067 3.79466e-07 0)
(11.067 1.55052e-06 0)
(11.067 -1.51875e-07 0)
(11.567 2.12769e-06 0)
(11.567 3.09139e-06 0)
(11.567 8.51879e-07 0)
(11.567 3.04884e-07 0)
(11.567 3.56145e-07 0)
(11.567 1.80634e-07 0)
(11.567 1.36915e-07 0)
(11.567 8.03702e-08 0)
(11.567 6.00053e-08 0)
(11.567 7.85728e-08 0)
(11.567 5.83249e-08 0)
(11.567 7.78168e-08 0)
(11.567 -4.84502e-08 0)
(11.567 1.07253e-07 0)
(11.567 -8.97972e-08 0)
(11.567 2.62733e-07 0)
(11.567 -5.33085e-07 0)
(11.567 3.46531e-07 0)
(11.567 1.47511e-06 0)
(11.567 -2.56508e-08 0)
(11.9407 1.54764e-06 0)
(11.9408 2.52746e-06 0)
(11.9408 9.87182e-07 0)
(11.9408 3.73474e-07 0)
(11.9408 4.09965e-07 0)
(11.9407 1.95922e-07 0)
(11.9408 1.49953e-07 0)
(11.9407 7.42062e-08 0)
(11.9408 6.26872e-08 0)
(11.9407 6.57827e-08 0)
(11.9408 5.56574e-08 0)
(11.9407 6.98133e-08 0)
(11.9408 -4.39123e-08 0)
(11.9407 9.45241e-08 0)
(11.9408 -7.31893e-08 0)
(11.9407 2.40997e-07 0)
(11.9408 -4.80314e-07 0)
(11.9407 3.04792e-07 0)
(11.9408 1.33084e-06 0)
(11.9408 9.28758e-08 0)
(12.1882 9.47981e-07 0)
(12.1882 1.88849e-06 0)
(12.1882 1.04739e-06 0)
(12.1882 4.08617e-07 0)
(12.1882 4.38254e-07 0)
(12.1882 1.97784e-07 0)
(12.1882 1.52748e-07 0)
(12.1882 6.23457e-08 0)
(12.1882 6.133e-08 0)
(12.1882 5.01446e-08 0)
(12.1882 5.18624e-08 0)
(12.1882 5.93521e-08 0)
(12.1882 -3.82616e-08 0)
(12.1882 7.74276e-08 0)
(12.1882 -5.20985e-08 0)
(12.1882 2.0905e-07 0)
(12.1882 -4.12927e-07 0)
(12.1882 2.57741e-07 0)
(12.1882 1.13169e-06 0)
(12.1882 1.92274e-07 0)
(12.3093 3.97232e-07 0)
(12.3094 1.25449e-06 0)
(12.3094 1.03326e-06 0)
(12.3094 4.04254e-07 0)
(12.3094 4.36861e-07 0)
(12.3094 1.84423e-07 0)
(12.3094 1.44144e-07 0)
(12.3094 4.52602e-08 0)
(12.3094 5.59386e-08 0)
(12.3094 3.28854e-08 0)
(12.3094 4.74549e-08 0)
(12.3094 4.78893e-08 0)
(12.3094 -3.1884e-08 0)
(12.3094 5.78789e-08 0)
(12.3094 -2.89459e-08 0)
(12.3094 1.70947e-07 0)
(12.3094 -3.38196e-07 0)
(12.3094 2.07995e-07 0)
(12.3094 8.9676e-07 0)
(12.3094 2.63821e-07 0)
(12.3042 -4.46459e-08 0)
(12.3042 6.98592e-07 0)
(12.3042 9.51068e-07 0)
(12.3042 3.59814e-07 0)
(12.3042 4.05488e-07 0)
(12.3042 1.56645e-07 0)
(12.3042 1.24665e-07 0)
(12.3042 2.45684e-08 0)
(12.3042 4.71987e-08 0)
(12.3042 1.57116e-08 0)
(12.3042 4.30425e-08 0)
(12.3042 3.704e-08 0)
(12.3042 -2.53075e-08 0)
(12.3042 3.79655e-08 0)
(12.3042 -6.46795e-09 0)
(12.3042 1.30877e-07 0)
(12.3042 -2.63305e-07 0)
(12.3042 1.5771e-07 0)
(12.3042 6.48499e-07 0)
(12.3042 3.01985e-07 0)
(12.1727 -3.34378e-07 0)
(12.1727 2.76617e-07 0)
(12.1727 8.10608e-07 0)
(12.1727 2.80462e-07 0)
(12.1727 3.47737e-07 0)
(12.1727 1.18264e-07 0)
(12.1727 9.6663e-08 0)
(12.1727 2.90447e-09 0)
(12.1727 3.62866e-08 0)
(12.1727 6.88153e-10 0)
(12.1727 3.92726e-08 0)
(12.1727 2.81924e-08 0)
(12.1727 -1.92516e-08 0)
(12.1727 1.96643e-08 0)
(12.1727 1.27878e-08 0)
(12.1727 9.25735e-08 0)
(12.1727 -1.94688e-07 0)
(12.1727 1.09126e-07 0)
(12.1727 4.11204e-07 0)
(12.1727 3.04617e-07 0)
(11.9147 -4.49391e-07 0)
(11.9147 1.88534e-08 0)
(11.9147 6.2058e-07 0)
(11.9148 1.76201e-07 0)
(11.9148 2.70316e-07 0)
(11.9148 7.62725e-08 0)
(11.9148 6.37694e-08 0)
(11.9148 -1.59369e-08 0)
(11.9148 2.55178e-08 0)
(11.9148 -9.56578e-09 0)
(11.9148 3.60427e-08 0)
(11.9148 2.18416e-08 0)
(11.9148 -1.49404e-08 0)
(11.9148 4.40711e-09 0)
(11.9148 2.62748e-08 0)
(11.9148 5.905e-08 0)
(11.9148 -1.37386e-07 0)
(11.9148 6.55711e-08 0)
(11.9148 2.10398e-07 0)
(11.9148 2.71838e-07 0)
(11.5304 -4.03921e-07 0)
(11.5304 -8.10345e-08 0)
(11.5304 4.08008e-07 0)
(11.5304 7.60479e-08 0)
(11.5304 1.8373e-07 0)
(11.5304 3.86956e-08 0)
(11.5304 3.32758e-08 0)
(11.5304 -2.72667e-08 0)
(11.5304 1.36208e-08 0)
(11.5304 -1.50201e-08 0)
(11.5304 3.36093e-08 0)
(11.5304 1.87441e-08 0)
(11.5304 -1.33517e-08 0)
(11.5304 -7.51505e-09 0)
(11.5304 3.45402e-08 0)
(11.5304 3.25047e-08 0)
(11.5304 -9.05419e-08 0)
(11.5304 3.02323e-08 0)
(11.5304 6.72053e-08 0)
(11.5304 2.08719e-07 0)
(11.0195 -2.35076e-07 0)
(11.0195 -5.78e-08 0)
(11.0195 1.73648e-07 0)
(11.0195 -1.27982e-08 0)
(11.0195 9.89274e-08 0)
(11.0195 2.12712e-08 0)
(11.0195 7.56003e-09 0)
(11.0195 -2.79354e-08 0)
(11.0195 8.54193e-09 0)
(11.0195 -1.08543e-08 0)
(11.0195 2.61949e-08 0)
(11.0195 1.15073e-08 0)
(11.0195 -1.92305e-08 0)
(11.0195 -1.20135e-08 0)
(11.0195 3.57318e-08 0)
(11.0195 1.42212e-08 0)
(11.0195 -5.97831e-08 0)
(11.0195 1.44814e-08 0)
(11.0195 1.2851e-08 0)
(11.0195 1.18918e-07 0)
(10.382 -7.49024e-08 0)
(10.382 -1.27608e-08 0)
(10.382 5.48377e-08 0)
(10.382 -8.83145e-09 0)
(10.382 2.98028e-08 0)
(10.382 3.84812e-09 0)
(10.382 -4.00224e-10 0)
(10.382 -1.11433e-08 0)
(10.382 1.0488e-09 0)
(10.382 -4.45237e-09 0)
(10.382 1.22178e-08 0)
(10.382 6.60467e-09 0)
(10.382 -7.03337e-09 0)
(10.382 -7.17398e-09 0)
(10.382 1.4202e-08 0)
(10.382 4.11798e-09 0)
(10.382 -1.87294e-08 0)
(10.382 -1.42454e-09 0)
(10.382 -4.45759e-09 0)
(10.382 4.00474e-08 0)
)
;

boundaryField
{
    top
    {
        type            fixedValue;
        value           uniform (10 0 0);
    }
    bottom
    {
        type            fixedValue;
        value           uniform (0 0 0);
    }
    inlet
    {
        type            zeroGradient;
    }
    outlet
    {
        type            zeroGradient;
    }
    frontAndBack
    {
        type            empty;
    }
}


// ************************************************************************* //
