/*--------------------------------*- C++ -*----------------------------------*\
| =========                 |                                                 |
| \\      /  F ield         | OpenFOAM: The Open Source CFD Toolbox           |
|  \\    /   O peration     | Version:  v1706                                 |
|   \\  /    A nd           | Web:      www.OpenFOAM.com                      |
|    \\/     M anipulation  |                                                 |
\*---------------------------------------------------------------------------*/
FoamFile
{
    version     2.0;
    format      ascii;
    class       surfaceScalarField;
    location    "2";
    object      phi;
}
// * * * * * * * * * * * * * * * * * * * * * * * * * * * * * * * * * * * * * //

dimensions      [0 3 -1 0 0 0 0];
oriented        oriented;


internalField   nonuniform List<scalar> 
760
(
4.41638e-05
-4.30872e-12
4.41638e-05
-3.12173e-12
4.41638e-05
-1.14577e-12
4.41638e-05
-8.85385e-13
4.41638e-05
-4.65644e-13
4.41638e-05
-3.80552e-13
4.41638e-05
-3.52337e-13
4.41638e-05
-3.39724e-13
4.41638e-05
-3.56815e-13
4.41638e-05
-6.07959e-13
4.41638e-05
-5.92135e-13
4.41638e-05
-9.15875e-13
4.41638e-05
-1.46755e-12
4.41638e-05
-1.39863e-12
4.41638e-05
-2.82578e-12
4.41638e-05
-2.96928e-12
4.41638e-05
-4.33452e-12
4.41638e-05
-4.76316e-12
4.41638e-05
-7.27147e-12
-8.8221e-12
0.000126159
-1.26977e-11
0.000126159
-1.10738e-11
0.000126159
-4.43515e-12
0.000126159
-2.82802e-12
0.000126159
-1.68176e-12
0.000126159
-1.06192e-12
0.000126159
-1.13938e-12
0.000126159
-9.15204e-13
0.000126159
-9.93377e-13
0.000126159
-1.7944e-12
0.000126159
-1.43872e-12
0.000126159
-2.93647e-12
0.000126159
-3.57725e-12
0.000126159
-4.59419e-12
0.000126159
-7.27041e-12
0.000126159
-8.76988e-12
0.000126159
-1.21216e-11
0.000126159
-1.27406e-11
0.000126159
-2.11958e-11
-2.27857e-11
0.000201821
-2.20049e-11
0.000201821
-2.20909e-11
0.000201821
-8.94773e-12
0.000201821
-5.80912e-12
0.000201821
-3.10932e-12
0.000201821
-2.30965e-12
0.000201821
-1.87106e-12
0.000201821
-1.94095e-12
0.000201821
-1.60754e-12
0.000201821
-3.36462e-12
0.000201821
-2.50091e-12
0.000201821
-5.36821e-12
0.000201821
-6.17703e-12
0.000201821
-8.57849e-12
0.000201821
-1.25164e-11
0.000201821
-1.60103e-11
0.000201821
-2.17369e-11
0.000201821
-2.22937e-11
0.000201821
-3.88092e-11
-3.9422e-11
0.00027115
-3.06663e-11
0.00027115
-3.37643e-11
0.00027115
-1.42678e-11
0.00027115
-8.99566e-12
0.00027115
-4.99638e-12
0.00027115
-3.45164e-12
0.00027115
-3.00978e-12
0.00027115
-2.68723e-12
0.00027115
-2.75536e-12
0.00027115
-4.47496e-12
0.00027115
-4.23506e-12
0.00027115
-7.38216e-12
0.00027115
-9.2753e-12
0.00027115
-1.25626e-11
0.00027115
-1.79832e-11
0.00027115
-2.35927e-11
0.00027115
-3.19487e-11
0.00027115
-3.20709e-11
0.00027115
-5.72176e-11
-5.64004e-11
0.000334146
-3.74182e-11
0.000334146
-4.41904e-11
0.000334146
-1.95215e-11
0.000334146
-1.20572e-11
0.000334146
-6.98517e-12
0.000334146
-4.50562e-12
0.000334146
-4.29633e-12
0.000334146
-3.2768e-12
0.000334146
-4.17964e-12
0.000334146
-5.27362e-12
0.000334146
-6.3492e-12
0.000334146
-9.0945e-12
0.000334146
-1.25611e-11
0.000334146
-1.65061e-11
0.000334146
-2.33651e-11
0.000334146
-3.12234e-11
0.000334146
-4.22526e-11
0.000334146
-4.16831e-11
0.000334146
-7.45637e-11
-7.20366e-11
0.00039081
-4.14983e-11
0.00039081
-5.18945e-11
0.00039081
-2.39624e-11
0.00039081
-1.45505e-11
0.00039081
-8.83863e-12
0.00039081
-5.32247e-12
0.00039081
-5.61529e-12
0.00039081
-3.6441e-12
0.00039081
-5.75231e-12
0.00039081
-5.73725e-12
0.00039081
-8.60574e-12
0.00039081
-1.04913e-11
0.00039081
-1.56695e-11
0.00039081
-2.02341e-11
0.00039081
-2.821e-11
0.00039081
-3.83869e-11
0.00039081
-5.19177e-11
0.00039081
-5.05699e-11
0.00039081
-8.9407e-11
-8.48521e-11
0.000441141
-4.25672e-11
0.000441141
-5.59707e-11
0.000441141
-2.69587e-11
0.000441141
-1.61415e-11
0.000441141
-1.03159e-11
0.000441141
-5.81099e-12
0.000441141
-6.82721e-12
0.000441141
-3.77655e-12
0.000441141
-7.31705e-12
0.000441141
-5.89928e-12
0.000441141
-1.07614e-11
0.000441141
-1.15923e-11
0.000441141
-1.83022e-11
0.000441141
-2.35807e-11
0.000441141
-3.21956e-11
0.000441141
-4.46383e-11
0.000441141
-6.0348e-11
0.000441141
-5.83389e-11
0.000441141
-1.00926e-10
-9.39759e-11
0.000485139
-4.06941e-11
0.000485139
-5.60943e-11
0.000485139
-2.81233e-11
0.000485139
-1.66118e-11
0.000485139
-1.1251e-11
0.000485139
-5.9063e-12
0.000485139
-7.83204e-12
0.000485139
-3.67218e-12
0.000485139
-8.74895e-12
0.000485139
-5.80829e-12
0.000485139
-1.26261e-11
0.000485139
-1.24293e-11
0.000485139
-2.02683e-11
0.000485139
-2.64163e-11
0.000485139
-3.51471e-11
0.000485139
-4.9667e-11
0.000485139
-6.71187e-11
0.000485139
-6.47294e-11
0.000485139
-1.08762e-10
-9.90188e-11
0.000522805
-3.62574e-11
0.000522805
-5.24686e-11
0.000522805
-2.73523e-11
0.000522805
-1.59024e-11
0.000522805
-1.15596e-11
0.000522805
-5.59339e-12
0.000522805
-8.55582e-12
0.000522805
-3.35261e-12
0.000522805
-9.93593e-12
0.000522805
-5.52522e-12
0.000522805
-1.40468e-11
0.000522805
-1.30223e-11
0.000522805
-2.14555e-11
0.000522805
-2.86095e-11
0.000522805
-3.69727e-11
0.000522805
-5.32293e-11
0.000522805
-7.18894e-11
0.000522805
-6.94793e-11
0.000522805
-1.12796e-10
-9.99335e-11
0.000554137
-2.98661e-11
0.000554137
-4.5738e-11
0.000554137
-2.48317e-11
0.000554137
-1.41205e-11
0.000554137
-1.12535e-11
0.000554137
-4.90741e-12
0.000554137
-8.96127e-12
0.000554137
-2.85706e-12
0.000554137
-1.07909e-11
0.000554137
-5.11041e-12
0.000554137
-1.49202e-11
0.000554137
-1.33714e-11
0.000554137
-2.18279e-11
0.000554137
-3.00359e-11
0.000554137
-3.7648e-11
0.000554137
-5.51582e-11
0.000554137
-7.44164e-11
0.000554137
-7.23375e-11
0.000554137
-1.13076e-10
-9.69531e-11
0.000579137
-2.22681e-11
0.000579137
-3.68628e-11
0.000579137
-2.0992e-11
0.000579137
-1.15239e-11
0.000579137
-1.04316e-11
0.000579137
-3.93216e-12
0.000579137
-9.04436e-12
0.000579137
-2.2398e-12
0.000579137
-1.12531e-11
0.000579137
-4.61634e-12
0.000579137
-1.51922e-11
0.000579137
-1.34544e-11
0.000579137
-2.14099e-11
0.000579137
-3.05833e-11
0.000579137
-3.71919e-11
0.000579137
-5.53537e-11
0.000579137
-7.45487e-11
0.000579137
-7.30719e-11
0.000579137
-1.09754e-10
-9.05065e-11
0.000597805
-1.42709e-11
0.000597805
-2.69825e-11
0.000597805
-1.64267e-11
0.000597805
-8.47877e-12
0.000597805
-9.25461e-12
0.000597805
-2.78894e-12
0.000597805
-8.82718e-12
0.000597805
-1.56472e-12
0.000597805
-1.12896e-11
0.000597805
-4.08295e-12
0.000597805
-1.4855e-11
0.000597805
-1.32333e-11
0.000597805
-2.02699e-11
0.000597805
-3.01645e-11
0.000597805
-3.56522e-11
0.000597805
-5.37817e-11
0.000597805
-7.22355e-11
0.000597805
-7.15026e-11
0.000597805
-1.03059e-10
-8.116e-11
0.000610139
-6.67801e-12
0.000610139
-1.72753e-11
0.000610139
-1.17845e-11
0.000610139
-5.39867e-12
0.000610139
-7.90711e-12
0.000610139
-1.6188e-12
0.000610139
-8.34613e-12
0.000610139
-8.98915e-13
0.000610139
-1.08929e-11
0.000610139
-3.53681e-12
0.000610139
-1.39415e-11
0.000610139
-1.26646e-11
0.000610139
-1.8506e-11
0.000610139
-2.87313e-11
0.000610139
-3.30991e-11
0.000610139
-5.04758e-11
0.000610139
-6.75348e-11
0.000610139
-6.75384e-11
0.000610139
-9.33077e-11
-6.95738e-11
0.000616141
-2.15724e-13
0.000616141
-8.81026e-12
0.000616141
-7.65697e-12
0.000616141
-2.67329e-12
0.000616141
-6.55542e-12
0.000616141
-5.61812e-13
0.000616141
-7.63852e-12
0.000616141
-3.07229e-13
0.000616141
-1.00778e-11
0.000616141
-2.99438e-12
0.000616141
-1.25172e-11
0.000616141
-1.17159e-11
0.000616141
-1.62358e-11
0.000616141
-2.62919e-11
0.000616141
-2.96307e-11
0.000616141
-4.55497e-11
0.000616141
-6.06318e-11
0.000616141
-6.12246e-11
0.000616141
-8.09306e-11
-5.64854e-11
0.00061581
4.50398e-12
0.00061581
-2.42359e-12
0.00061581
-4.46846e-12
0.00061581
-6.01745e-13
0.00061581
-5.30888e-12
0.00061581
2.63592e-13
0.00061581
-6.72886e-12
0.00061581
1.53986e-13
0.00061581
-8.87486e-12
0.00061581
-2.46192e-12
0.00061581
-1.06731e-11
0.00061581
-1.03689e-11
0.00061581
-1.35868e-11
0.00061581
-2.29108e-11
0.00061581
-2.53656e-11
0.00061581
-3.91871e-11
0.00061581
-5.18243e-11
0.00061581
-5.27485e-11
0.00061581
-6.6491e-11
-4.27009e-11
0.000609146
7.07963e-12
0.000609146
1.43665e-12
0.000609146
-2.40078e-12
0.000609146
6.58496e-13
0.000609146
-4.19647e-12
0.000609146
7.68254e-13
0.000609146
-5.62001e-12
0.000609146
4.26589e-13
0.000609146
-7.3228e-12
0.000609146
-1.96224e-12
0.000609146
-8.51845e-12
0.000609146
-8.65854e-12
0.000609146
-1.07075e-11
0.000609146
-1.87521e-11
0.000609146
-2.04914e-11
0.000609146
-3.1715e-11
0.000609146
-4.16026e-11
0.000609146
-4.25676e-11
0.000609146
-5.08013e-11
-2.91597e-11
0.00059615
7.33462e-12
0.00059615
2.77063e-12
0.00059615
-1.34791e-12
0.00059615
1.10773e-12
0.00059615
-3.16667e-12
0.00059615
9.02172e-13
0.00059615
-4.30644e-12
0.00059615
4.69936e-13
0.00059615
-5.49782e-12
0.00059615
-1.50165e-12
0.00059615
-6.2209e-12
0.00059615
-6.64408e-12
0.00059615
-7.797e-12
0.00059615
-1.40707e-11
0.00059615
-1.52862e-11
0.00059615
-2.36083e-11
0.00059615
-3.06686e-11
0.00059615
-3.14315e-11
0.00059615
-3.49748e-11
-1.69632e-11
0.000576821
5.47687e-12
0.000576821
2.23916e-12
0.000576821
-9.2663e-13
0.000576821
9.21731e-13
0.000576821
-2.06802e-12
0.000576821
6.44875e-13
0.000576821
-2.68662e-12
0.000576821
1.98292e-13
0.000576821
-3.31729e-12
0.000576821
-1.18264e-12
0.000576821
-3.72101e-12
0.000576821
-4.44664e-12
0.000576821
-4.81478e-12
0.000576821
-9.0324e-12
0.000576821
-9.74858e-12
0.000576821
-1.50763e-11
0.000576821
-1.92947e-11
0.000576821
-1.97879e-11
0.000576821
-2.00746e-11
-7.29394e-12
0.000551159
2.13781e-12
0.000551159
9.23522e-13
0.000551159
-5.70919e-13
0.000551159
3.38547e-13
0.000551159
-7.7324e-13
0.000551159
4.66842e-14
0.000551159
-8.2642e-13
0.000551159
-3.07694e-13
0.000551159
-1.03227e-12
0.000551159
-8.84664e-13
0.000551159
-1.35904e-12
0.000551159
-2.1247e-12
0.000551159
-2.05678e-12
0.000551159
-4.02388e-12
0.000551159
-4.33077e-12
0.000551159
-6.7676e-12
0.000551159
-8.38554e-12
0.000551159
-8.45305e-12
0.000551159
-7.15591e-12
-1.01419e-12
0.000519164
0.000519164
0.000519164
0.000519164
0.000519164
0.000519164
0.000519164
0.000519164
0.000519164
0.000519164
0.000519164
0.000519164
0.000519164
0.000519164
0.000519164
0.000519164
0.000519164
0.000519164
0.000519164
)
;

boundaryField
{
    top
    {
        type            calculated;
        value           uniform 0;
    }
    bottom
    {
        type            calculated;
        value           uniform 0;
    }
    inlet
    {
        type            calculated;
        value           nonuniform List<scalar> 
20
(
-4.41638e-05
-0.000126159
-0.000201821
-0.00027115
-0.000334146
-0.00039081
-0.000441141
-0.000485139
-0.000522805
-0.000554137
-0.000579137
-0.000597805
-0.000610139
-0.000616141
-0.00061581
-0.000609146
-0.00059615
-0.000576821
-0.000551159
-0.000519164
)
;
    }
    outlet
    {
        type            calculated;
        value           nonuniform List<scalar> 
20
(
4.41638e-05
0.000126159
0.000201821
0.00027115
0.000334146
0.00039081
0.000441141
0.000485139
0.000522805
0.000554137
0.000579137
0.000597805
0.000610139
0.000616141
0.00061581
0.000609146
0.00059615
0.000576821
0.000551159
0.000519164
)
;
    }
    frontAndBack
    {
        type            empty;
        value           nonuniform 0();
    }
}


// ************************************************************************* //
