/*--------------------------------*- C++ -*----------------------------------*\
| =========                 |                                                 |
| \\      /  F ield         | OpenFOAM: The Open Source CFD Toolbox           |
|  \\    /   O peration     | Version:  v1706                                 |
|   \\  /    A nd           | Web:      www.OpenFOAM.com                      |
|    \\/     M anipulation  |                                                 |
\*---------------------------------------------------------------------------*/
FoamFile
{
    version     2.0;
    format      ascii;
    class       volVectorField;
    location    "2";
    object      U;
}
// * * * * * * * * * * * * * * * * * * * * * * * * * * * * * * * * * * * * * //

dimensions      [0 1 -1 0 0 0 0];


internalField   nonuniform List<vector> 
400
(
(0.883276 -1.788e-09 0)
(0.883276 -1.45663e-09 0)
(0.883276 1.37349e-10 0)
(0.883276 -1.01266e-09 0)
(0.883276 5.49512e-10 0)
(0.883276 -9.9056e-10 0)
(0.883276 7.20688e-10 0)
(0.883276 -1.09564e-09 0)
(0.883276 7.62718e-10 0)
(0.883276 -1.20944e-09 0)
(0.883276 4.77605e-10 0)
(0.883276 -1.06002e-09 0)
(0.883276 -4.43238e-10 0)
(0.883276 -9.06187e-10 0)
(0.883276 -1.54143e-09 0)
(0.883276 -1.61428e-09 0)
(0.883276 -2.28251e-09 0)
(0.883276 -2.51934e-09 0)
(0.883276 -3.29397e-09 0)
(0.883276 -3.95775e-09 0)
(2.52317 -8.29051e-09 0)
(2.52317 -6.04509e-09 0)
(2.52317 -3.00453e-09 0)
(2.52317 -1.00673e-09 0)
(2.52317 -1.7136e-09 0)
(2.52317 1.04225e-10 0)
(2.52317 -1.59075e-09 0)
(2.52317 2.20197e-10 0)
(2.52317 -1.59106e-09 0)
(2.52317 -4.67043e-10 0)
(2.52317 -1.80438e-09 0)
(2.52317 -1.60891e-09 0)
(2.52317 -3.02517e-09 0)
(2.52317 -3.3216e-09 0)
(2.52317 -5.52237e-09 0)
(2.52317 -6.60251e-09 0)
(2.52317 -9.05717e-09 0)
(2.52317 -9.76181e-09 0)
(2.52317 -1.43729e-08 0)
(2.52317 -1.50572e-08 0)
(4.03641 -1.69603e-08 0)
(4.03641 -1.63022e-08 0)
(4.03641 -5.87932e-09 0)
(4.03641 -4.75131e-09 0)
(4.03641 -1.67028e-09 0)
(4.03641 -2.39252e-09 0)
(4.03641 -7.34239e-10 0)
(4.03641 -2.26081e-09 0)
(4.03641 -5.4447e-10 0)
(4.03641 -3.39444e-09 0)
(4.03641 -1.43672e-09 0)
(4.03641 -4.71555e-09 0)
(4.03641 -4.85669e-09 0)
(4.03641 -6.87383e-09 0)
(4.03641 -1.03019e-08 0)
(4.03641 -1.28215e-08 0)
(4.03641 -1.75052e-08 0)
(4.03641 -1.83539e-08 0)
(4.03641 -3.03199e-08 0)
(4.03641 -3.14631e-08 0)
(5.423 -2.67184e-08 0)
(5.423 -2.78442e-08 0)
(5.423 -1.16594e-08 0)
(5.423 -7.15477e-09 0)
(5.423 -4.17813e-09 0)
(5.423 -2.64653e-09 0)
(5.423 -2.60927e-09 0)
(5.423 -2.08479e-09 0)
(5.423 -2.32833e-09 0)
(5.423 -3.73705e-09 0)
(5.423 -3.41915e-09 0)
(5.423 -6.2805e-09 0)
(5.423 -7.63543e-09 0)
(5.423 -1.05129e-08 0)
(5.423 -1.50538e-08 0)
(5.423 -1.96573e-08 0)
(5.423 -2.65714e-08 0)
(5.423 -2.69768e-08 0)
(5.423 -4.77938e-08 0)
(5.423 -4.74946e-08 0)
(6.68293 -3.46585e-08 0)
(6.68293 -3.94392e-08 0)
(6.68293 -1.70265e-08 0)
(6.68293 -1.05579e-08 0)
(6.68293 -6.00469e-09 0)
(6.68293 -3.96062e-09 0)
(6.68293 -3.64491e-09 0)
(6.68293 -2.95267e-09 0)
(6.68293 -3.4273e-09 0)
(6.68293 -4.85057e-09 0)
(6.68293 -5.20585e-09 0)
(6.68293 -8.19447e-09 0)
(6.68293 -1.07972e-08 0)
(6.68293 -1.4398e-08 0)
(6.68293 -2.0506e-08 0)
(6.68293 -2.71569e-08 0)
(6.68293 -3.67952e-08 0)
(6.68293 -3.6582e-08 0)
(6.68293 -6.59479e-08 0)
(6.68293 -6.44577e-08 0)
(7.8162 -4.02238e-08 0)
(7.8162 -4.88104e-08 0)
(7.8162 -2.20731e-08 0)
(7.8162 -1.34276e-08 0)
(7.8162 -7.99575e-09 0)
(7.8162 -4.91198e-09 0)
(7.8162 -4.98369e-09 0)
(7.8162 -3.42372e-09 0)
(7.8162 -4.95337e-09 0)
(7.8162 -5.46742e-09 0)
(7.8162 -7.42033e-09 0)
(7.8162 -9.73432e-09 0)
(7.8162 -1.40224e-08 0)
(7.8162 -1.82354e-08 0)
(7.8162 -2.56371e-08 0)
(7.8162 -3.45692e-08 0)
(7.8162 -4.68131e-08 0)
(7.8162 -4.5771e-08 0)
(7.8162 -8.2144e-08 0)
(7.8162 -7.88503e-08 0)
(8.82282 -4.28187e-08 0)
(8.82282 -5.48617e-08 0)
(8.82282 -2.59144e-08 0)
(8.82282 -1.55641e-08 0)
(8.82282 -9.69426e-09 0)
(8.82282 -5.60073e-09 0)
(8.82282 -6.25027e-09 0)
(8.82282 -3.69131e-09 0)
(8.82282 -6.51558e-09 0)
(8.82282 -5.78497e-09 0)
(8.82282 -9.625e-09 0)
(8.82282 -1.097e-08 0)
(8.82282 -1.68956e-08 0)
(8.82282 -2.17508e-08 0)
(8.82282 -3.00373e-08 0)
(8.82282 -4.12453e-08 0)
(8.82282 -5.58415e-08 0)
(8.82282 -5.3992e-08 0)
(8.82282 -9.52774e-08 0)
(8.82282 -8.98558e-08 0)
(9.70278 -4.23607e-08 0)
(9.70278 -5.69795e-08 0)
(9.70278 -2.80664e-08 0)
(9.70278 -1.66416e-08 0)
(9.70278 -1.094e-08 0)
(9.70278 -5.90255e-09 0)
(9.70278 -7.38272e-09 0)
(9.70278 -3.70495e-09 0)
(9.70278 -8.03762e-09 0)
(9.70278 -5.81609e-09 0)
(9.70278 -1.16653e-08 0)
(9.70278 -1.19399e-08 0)
(9.70278 -1.92298e-08 0)
(9.70278 -2.4869e-08 0)
(9.70278 -3.35424e-08 0)
(9.70278 -4.6943e-08 0)
(9.70278 -6.35251e-08 0)
(9.70278 -6.11121e-08 0)
(9.70278 -1.04985e-07 0)
(9.70278 -9.69904e-08 0)
(10.4561 -3.90738e-08 0)
(10.4561 -5.51245e-08 0)
(10.4561 -2.82475e-08 0)
(10.4561 -1.65248e-08 0)
(10.4561 -1.15687e-08 0)
(10.4561 -5.79776e-09 0)
(10.4561 -8.25282e-09 0)
(10.4561 -3.49512e-09 0)
(10.4561 -9.35592e-09 0)
(10.4561 -5.62672e-09 0)
(10.4561 -1.33228e-08 0)
(10.4561 -1.2654e-08 0)
(10.4561 -2.08195e-08 0)
(10.4561 -2.73983e-08 0)
(10.4561 -3.59388e-08 0)
(10.4561 -5.1264e-08 0)
(10.4561 -6.93353e-08 0)
(10.4561 -6.6702e-08 0)
(10.4561 -1.10887e-07 0)
(10.4561 -9.99288e-08 0)
(11.0827 -3.34789e-08 0)
(11.0827 -4.97444e-08 0)
(11.0827 -2.65124e-08 0)
(11.0827 -1.52342e-08 0)
(11.0827 -1.15524e-08 0)
(11.0827 -5.28839e-09 0)
(11.0827 -8.81548e-09 0)
(11.0827 -3.08525e-09 0)
(11.0827 -1.03826e-08 0)
(11.0827 -5.2746e-09 0)
(11.0827 -1.44803e-08 0)
(11.0827 -1.3127e-08 0)
(11.0827 -2.16038e-08 0)
(11.0827 -2.92257e-08 0)
(11.0827 -3.719e-08 0)
(11.0827 -5.40322e-08 0)
(11.0827 -7.30129e-08 0)
(11.0827 -7.05421e-08 0)
(11.0827 -1.13004e-07 0)
(11.0827 -9.88151e-08 0)
(11.5827 -2.62777e-08 0)
(11.5827 -4.16757e-08 0)
(11.5827 -2.31863e-08 0)
(11.5827 -1.29631e-08 0)
(11.5827 -1.09496e-08 0)
(11.5827 -4.43624e-09 0)
(11.5827 -9.0504e-09 0)
(11.5827 -2.52325e-09 0)
(11.5827 -1.10433e-08 0)
(11.5827 -4.81751e-09 0)
(11.5827 -1.50579e-08 0)
(11.5827 -1.33487e-08 0)
(11.5827 -2.15785e-08 0)
(11.5827 -3.02315e-08 0)
(11.5827 -3.72963e-08 0)
(11.5827 -5.51137e-08 0)
(11.5827 -7.43605e-08 0)
(11.5827 -7.23844e-08 0)
(11.5827 -1.11445e-07 0)
(11.5827 -9.39938e-08 0)
(11.9561 -1.82669e-08 0)
(11.9561 -3.20046e-08 0)
(11.9561 -1.88074e-08 0)
(11.9561 -1.00384e-08 0)
(11.9561 -9.89815e-09 0)
(11.9561 -3.34797e-09 0)
(11.9561 -8.96908e-09 0)
(11.9561 -1.86938e-09 0)
(11.9561 -1.12915e-08 0)
(11.9561 -4.30235e-09 0)
(11.9561 -1.50251e-08 0)
(11.9561 -1.32885e-08 0)
(11.9561 -2.07919e-08 0)
(11.9561 -3.03142e-08 0)
(11.9561 -3.62935e-08 0)
(11.9561 -5.44411e-08 0)
(11.9561 -7.3277e-08 0)
(11.9561 -7.20156e-08 0)
(11.9561 -1.06401e-07 0)
(11.9561 -8.59733e-08 0)
(12.2028 -1.02705e-08 0)
(12.2028 -2.19267e-08 0)
(12.2028 -1.40266e-08 0)
(12.2028 -6.86944e-09 0)
(12.2028 -8.5816e-09 0)
(12.2028 -2.16065e-09 0)
(12.2028 -8.60428e-09 0)
(12.2028 -1.19109e-09 0)
(12.2028 -1.1107e-08 0)
(12.2028 -3.76292e-09 0)
(12.2028 -1.43947e-08 0)
(12.2028 -1.29053e-08 0)
(12.2028 -1.93293e-08 0)
(12.2028 -2.94045e-08 0)
(12.2028 -3.42432e-08 0)
(12.2028 -5.20147e-08 0)
(12.2028 -6.97673e-08 0)
(12.2028 -6.92956e-08 0)
(12.2028 -9.81421e-08 0)
(12.2028 -7.53743e-08 0)
(12.3228 -3.06999e-09 0)
(12.3228 -1.26023e-08 0)
(12.3228 -9.49543e-09 0)
(12.3228 -3.876e-09 0)
(12.3228 -7.18676e-09 0)
(12.3228 -1.01795e-09 0)
(12.3228 -7.99619e-09 0)
(12.3228 -5.50425e-10 0)
(12.3228 -1.04933e-08 0)
(12.3228 -3.21397e-09 0)
(12.3228 -1.32164e-08 0)
(12.3228 -1.21442e-08 0)
(12.3228 -1.72924e-08 0)
(12.3228 -2.74604e-08 0)
(12.3228 -3.12077e-08 0)
(12.3228 -4.7872e-08 0)
(12.3228 -6.391e-08 0)
(12.3228 -6.41383e-08 0)
(12.3228 -8.69862e-08 0)
(12.3228 -6.28687e-08 0)
(12.3162 2.66013e-09 0)
(12.3162 -5.0115e-09 0)
(12.3162 -5.74555e-09 0)
(12.3162 -1.42267e-09 0)
(12.3162 -5.86389e-09 0)
(12.3162 -6.23098e-11 0)
(12.3162 -7.18333e-09 0)
(12.3162 -2.60639e-11 0)
(12.3162 -9.47792e-09 0)
(12.3162 -2.70511e-09 0)
(12.3162 -1.15727e-08 0)
(12.3162 -1.10339e-08 0)
(12.3162 -1.48326e-08 0)
(12.3162 -2.45842e-08 0)
(12.3162 -2.73767e-08 0)
(12.3162 -4.22826e-08 0)
(12.3162 -5.60993e-08 0)
(12.3162 -5.68541e-08 0)
(12.3162 -7.359e-08 0)
(12.3162 -4.93275e-08 0)
(12.1829 6.37756e-09 0)
(12.1829 1.5588e-10 0)
(12.1829 -3.10092e-09 0)
(12.1829 2.57123e-10 0)
(12.1829 -4.68571e-09 0)
(12.1829 6.14001e-10 0)
(12.1829 -6.18097e-09 0)
(12.1829 3.51302e-10 0)
(12.1829 -8.10733e-09 0)
(12.1829 -2.18161e-09 0)
(12.1829 -9.57346e-09 0)
(12.1829 -9.49646e-09 0)
(12.1829 -1.20635e-08 0)
(12.1829 -2.07949e-08 0)
(12.1829 -2.27969e-08 0)
(12.1829 -3.5332e-08 0)
(12.1829 -4.6527e-08 0)
(12.1829 -4.74938e-08 0)
(12.1829 -5.84109e-08 0)
(12.1829 -3.55282e-08 0)
(11.923 7.77882e-09 0)
(11.923 2.72436e-09 0)
(11.923 -1.58294e-09 0)
(11.923 1.09922e-09 0)
(11.923 -3.60612e-09 0)
(11.923 9.13852e-10 0)
(11.923 -4.8985e-09 0)
(11.923 4.26716e-10 0)
(11.923 -6.24532e-09 0)
(11.923 -1.8509e-09 0)
(11.923 -7.09405e-09 0)
(11.923 -7.74173e-09 0)
(11.923 -8.95165e-09 0)
(11.923 -1.63221e-08 0)
(11.923 -1.75373e-08 0)
(11.923 -2.73162e-08 0)
(11.923 -3.5534e-08 0)
(11.923 -3.6553e-08 0)
(11.923 -4.247e-08 0)
(11.923 -2.26032e-08 0)
(11.5364 6.71995e-09 0)
(11.5364 2.5983e-09 0)
(11.5364 -1.07665e-09 0)
(11.5364 1.06043e-09 0)
(11.5364 -2.70659e-09 0)
(11.5364 8.77842e-10 0)
(11.5364 -3.76666e-09 0)
(11.5364 5.99105e-10 0)
(11.5364 -4.96496e-09 0)
(11.5364 -9.06591e-10 0)
(11.5364 -5.73102e-09 0)
(11.5364 -5.26162e-09 0)
(11.5364 -6.98752e-09 0)
(11.5364 -1.17651e-08 0)
(11.5364 -1.32713e-08 0)
(11.5364 -2.00262e-08 0)
(11.5364 -2.61634e-08 0)
(11.5364 -2.66628e-08 0)
(11.5364 -2.7961e-08 0)
(11.5364 -1.17879e-08 0)
(11.0232 4.04877e-09 0)
(11.0232 1.9188e-09 0)
(11.0232 -7.03653e-10 0)
(11.0232 6.98665e-10 0)
(11.0232 -1.32975e-09 0)
(11.0232 2.11886e-10 0)
(11.0232 -1.50851e-09 0)
(11.0232 -4.29749e-10 0)
(11.0232 -1.63998e-09 0)
(11.0232 -1.69847e-09 0)
(11.0232 -1.78502e-09 0)
(11.0232 -3.93434e-09 0)
(11.0232 -2.91071e-09 0)
(11.0232 -6.7757e-09 0)
(11.0232 -6.84932e-09 0)
(11.0232 -1.11165e-08 0)
(11.0232 -1.3648e-08 0)
(11.0232 -1.46281e-08 0)
(11.0232 -1.40018e-08 0)
(11.0232 -4.51391e-09 0)
(10.3833 1.12859e-09 0)
(10.3833 2.6111e-10 0)
(10.3833 -3.24209e-10 0)
(10.3833 1.908e-10 0)
(10.3833 -5.08152e-10 0)
(10.3833 1.91744e-10 0)
(10.3833 -7.0865e-10 0)
(10.3833 2.59566e-10 0)
(10.3833 -1.08463e-09 0)
(10.3833 2.33235e-10 0)
(10.3833 -1.3858e-09 0)
(10.3833 -4.18196e-10 0)
(10.3833 -1.50154e-09 0)
(10.3833 -1.70674e-09 0)
(10.3833 -2.39127e-09 0)
(10.3833 -3.30281e-09 0)
(10.3833 -4.51079e-09 0)
(10.3833 -4.22184e-09 0)
(10.3833 -3.33519e-09 0)
(10.3833 -1.06341e-10 0)
)
;

boundaryField
{
    top
    {
        type            fixedValue;
        value           uniform (10 0 0);
    }
    bottom
    {
        type            fixedValue;
        value           uniform (0 0 0);
    }
    inlet
    {
        type            zeroGradient;
    }
    outlet
    {
        type            zeroGradient;
    }
    frontAndBack
    {
        type            empty;
    }
}


// ************************************************************************* //
