/*--------------------------------*- C++ -*----------------------------------*\
| =========                 |                                                 |
| \\      /  F ield         | OpenFOAM: The Open Source CFD Toolbox           |
|  \\    /   O peration     | Version:  v1706                                 |
|   \\  /    A nd           | Web:      www.OpenFOAM.com                      |
|    \\/     M anipulation  |                                                 |
\*---------------------------------------------------------------------------*/
FoamFile
{
    version     2.0;
    format      ascii;
    class       surfaceScalarField;
    location    "0.9";
    object      phi;
}
// * * * * * * * * * * * * * * * * * * * * * * * * * * * * * * * * * * * * * //

dimensions      [0 3 -1 0 0 0 0];
oriented        oriented;


internalField   nonuniform List<scalar> 
760
(
4.41507e-05
-2.01383e-10
4.41509e-05
-2.02533e-10
4.41509e-05
-5.11018e-11
4.4151e-05
-2.07789e-11
4.4151e-05
-5.22113e-12
4.4151e-05
1.26243e-12
4.4151e-05
-1.15634e-12
4.4151e-05
2.69752e-12
4.4151e-05
-2.64344e-12
4.4151e-05
4.97785e-12
4.4151e-05
-3.5894e-12
4.4151e-05
8.08555e-12
4.4151e-05
-5.79127e-12
4.4151e-05
1.10961e-11
4.4151e-05
-8.7534e-12
4.4151e-05
1.29395e-11
4.4151e-05
-1.08117e-11
4.4151e-05
1.02423e-11
4.4151e-05
-3.6612e-11
-1.58989e-10
0.00012612
-5.83257e-10
0.00012612
-6.72315e-10
0.00012612
-1.99885e-10
0.00012612
-6.6018e-11
0.00012612
-1.89335e-11
0.00012612
4.0578e-12
0.00012612
-8.76696e-13
0.00012612
7.32521e-12
0.00012612
-4.61039e-12
0.00012612
1.24487e-11
0.00012612
-6.7182e-12
0.00012612
1.91452e-11
0.00012612
-1.24553e-11
0.00012612
2.60882e-11
0.00012612
-2.1106e-11
0.00012612
3.48854e-11
0.000126121
-3.83501e-11
0.00012612
5.01646e-11
0.000126121
-1.45047e-10
-4.61826e-10
0.000201757
-1.01292e-09
0.000201758
-1.2645e-09
0.000201758
-4.17261e-10
0.000201758
-1.25291e-10
0.000201758
-3.6588e-11
0.000201758
8.02331e-12
0.000201758
1.84247e-12
0.000201758
1.23574e-11
0.000201758
-4.49084e-12
0.000201758
1.94964e-11
0.000201758
-7.36437e-12
0.000201758
2.86718e-11
0.000201758
-1.65924e-11
0.000201758
3.89785e-11
0.000201758
-3.19184e-11
0.000201758
5.8463e-11
0.000201758
-7.49532e-11
0.000201758
1.10985e-10
0.000201758
-2.95444e-10
-8.09196e-10
0.000271064
-1.40822e-09
0.000271064
-1.84948e-09
0.000271065
-6.57927e-10
0.000271065
-1.87957e-10
0.000271065
-5.29089e-11
0.000271065
1.37863e-11
0.000271065
7.03433e-12
0.000271065
1.76838e-11
0.000271065
-2.71436e-12
0.000271065
2.56609e-11
0.000271065
-6.23281e-12
0.000271065
3.62235e-11
0.000271065
-1.86928e-11
0.000271065
4.9253e-11
0.000271065
-4.08194e-11
0.000271065
8.11917e-11
0.000271065
-1.14449e-10
0.000271065
1.79623e-10
0.000271065
-4.49558e-10
-1.14544e-09
0.00033404
-1.70623e-09
0.00033404
-2.32583e-09
0.00033404
-8.74765e-10
0.00033404
-2.40848e-10
0.00033404
-6.27867e-11
0.00033404
2.22008e-11
0.00033404
1.46819e-11
0.00033404
2.33337e-11
0.00033404
5.45749e-13
0.00033404
3.09328e-11
0.00033404
-3.48066e-12
0.00033404
4.19898e-11
0.00033404
-1.85878e-11
0.00033404
5.68844e-11
0.00033404
-4.69373e-11
0.00033404
1.01179e-10
0.00033404
-1.51586e-10
0.00033404
2.4535e-10
0.00033404
-5.8013e-10
-1.4256e-09
0.000390686
-1.86907e-09
0.000390686
-2.62347e-09
0.000390686
-1.02667e-09
0.000390686
-2.70458e-10
0.000390686
-6.14929e-11
0.000390686
3.41467e-11
0.000390686
2.46579e-11
0.000390686
2.92197e-11
0.000390686
4.97388e-12
0.000390686
3.51118e-11
0.000390686
4.90416e-13
0.000390686
4.58784e-11
0.000390686
-1.64064e-11
0.000390686
6.16054e-11
0.000390686
-4.96547e-11
0.000390686
1.16363e-10
0.000390686
-1.81415e-10
0.000390686
2.98408e-10
0.000390686
-6.7182e-10
-1.6183e-09
0.000441002
-1.88226e-09
0.000441002
-2.70603e-09
0.000441002
-1.08456e-09
0.000441002
-2.65833e-10
0.000441002
-4.55507e-11
0.000441002
5.01661e-11
0.000441002
3.66136e-11
0.000441002
3.51324e-11
0.000441002
1.02042e-11
0.000441002
3.79961e-11
0.000441002
5.26535e-12
0.000441002
4.77799e-11
0.000441002
-1.23438e-11
0.000441002
6.31911e-11
0.000441002
-4.85082e-11
0.000441002
1.24959e-10
0.000441002
-1.99915e-10
0.000441002
3.3179e-10
0.000441002
-7.19202e-10
-1.70649e-09
0.000484989
-1.75162e-09
0.000484989
-2.56981e-09
0.000484989
-1.0357e-09
0.000484989
-2.21441e-10
0.000484989
-1.37306e-11
0.000484989
7.00591e-11
0.000484989
4.98773e-11
0.000484989
4.07156e-11
0.000484989
1.58236e-11
0.000484989
3.94189e-11
0.000484989
1.04431e-11
0.000484989
4.76176e-11
0.000484989
-6.67403e-12
0.000484989
6.154e-11
0.000484989
-4.33141e-11
0.000484989
1.2579e-10
0.000484989
-2.04618e-10
0.000484989
3.41992e-10
0.000484989
-7.24089e-10
-1.68683e-09
0.000522647
-1.49895e-09
0.000522647
-2.2397e-09
0.000522646
-8.85234e-10
0.000522646
-1.39132e-10
0.000522646
3.21281e-11
0.000522646
9.2557e-11
0.000522646
6.33806e-11
0.000522646
4.54618e-11
0.000522646
2.13701e-11
0.000522646
3.92722e-11
0.000522646
1.56511e-11
0.000522646
4.53996e-11
0.000522646
2.36894e-13
0.000522646
5.67576e-11
0.000522646
-3.42831e-11
0.000522646
1.18566e-10
0.000522646
-1.94979e-10
0.000522646
3.29064e-10
0.000522646
-6.92605e-10
-1.5676e-09
0.000553976
-1.15746e-09
0.000553976
-1.76303e-09
0.000553975
-6.54899e-10
0.000553975
-2.85938e-11
0.000553975
8.68562e-11
0.000553975
1.1522e-10
0.000553975
7.56762e-11
0.000553975
4.87515e-11
0.000553975
2.63483e-11
0.000553975
3.75253e-11
0.000553975
2.05476e-11
0.000553975
4.12589e-11
0.000553975
7.91969e-12
0.000553975
4.92113e-11
0.000553975
-2.20934e-11
0.000553975
1.04024e-10
0.000553975
-1.72423e-10
0.000553975
2.96049e-10
0.000553975
-6.32864e-10
-1.36628e-09
0.000578976
-7.67328e-10
0.000578976
-1.20223e-09
0.000578976
-3.79187e-10
0.000578975
9.39388e-11
0.000578975
1.42499e-10
0.000578975
1.34675e-10
0.000578975
8.50842e-11
0.000578975
4.99478e-11
0.000578975
3.02642e-11
0.000578975
3.42409e-11
0.000578975
2.48179e-11
0.000578975
3.54721e-11
0.000578975
1.58001e-11
0.000578975
3.95386e-11
0.000578975
-7.88798e-12
0.000578975
8.38741e-11
0.000578975
-1.40073e-10
0.000578975
2.4814e-10
0.000578975
-5.53368e-10
-1.10673e-09
0.000597648
-3.71556e-10
0.000597647
-6.26906e-10
0.000597647
-9.95799e-11
0.000597647
2.08539e-10
0.000597647
1.89673e-10
0.000597647
1.47216e-10
0.000597647
8.99718e-11
0.000597647
4.85362e-11
0.000597647
3.26828e-11
0.000597647
2.95918e-11
0.000597647
2.81685e-11
0.000597647
2.84582e-11
0.000597647
2.32163e-11
0.000597647
2.86048e-11
0.000597647
6.82276e-12
0.000597647
6.05667e-11
0.000597647
-1.0223e-10
0.000597647
1.91766e-10
0.000597647
-4.6218e-10
-8.1653e-10
0.00060999
-1.21655e-11
0.00060999
-1.05714e-10
0.000609989
1.42348e-10
0.000609989
2.95519e-10
0.000609989
2.19518e-10
0.000609989
1.49665e-10
0.000609989
8.9119e-11
0.000609989
4.42864e-11
0.000609989
3.32931e-11
0.000609989
2.3876e-11
0.000609989
3.03241e-11
0.000609989
2.07583e-11
0.000609989
2.94567e-11
0.000609989
1.74186e-11
0.000609989
2.03413e-11
0.000609989
3.69173e-11
0.000609989
-6.37136e-11
0.000609989
1.33739e-10
0.000609989
-3.667e-10
-5.24487e-10
0.000616003
2.73549e-10
0.000616003
3.01694e-10
0.000616003
3.12138e-10
0.000616003
3.397e-10
0.000616003
2.25829e-10
0.000616003
1.4029e-10
0.000616003
8.20816e-11
0.000616003
3.73896e-11
0.000616003
3.19647e-11
0.000616003
1.75215e-11
0.000616003
3.10327e-11
0.000616003
1.29983e-11
0.000616003
3.38095e-11
0.000616003
7.01926e-12
0.000616003
3.10142e-11
0.000616003
1.56597e-11
0.000616003
-2.91377e-11
0.000616003
8.04998e-11
0.000616003
-2.73742e-10
-2.58302e-10
0.000615687
4.56661e-10
0.000615687
5.52535e-10
0.000615687
3.89152e-10
0.000615687
3.34125e-10
0.000615687
2.06841e-10
0.000615687
1.19527e-10
0.000615687
6.94391e-11
0.000615687
2.85295e-11
0.000615687
2.87734e-11
0.000615687
1.10775e-11
0.000615687
3.00658e-11
0.000615687
5.84599e-12
0.000615687
3.56144e-11
0.000615687
-1.63545e-12
0.000615687
3.74632e-11
0.000615687
-9.83516e-13
0.000615687
-2.23424e-12
0.000615687
3.73941e-11
0.000615687
-1.89673e-10
-4.235e-11
0.000609041
5.21038e-10
0.000609041
6.28753e-10
0.000609041
3.717e-10
0.000609041
2.82382e-10
0.000609041
1.66156e-10
0.000609041
9.02579e-11
0.000609041
5.28309e-11
0.000609041
1.88517e-11
0.000609041
2.39914e-11
0.000609041
5.19488e-12
0.000609041
2.72361e-11
0.000609041
-1.82843e-14
0.000609041
3.43309e-11
0.000609041
-7.74363e-12
0.000609041
3.87786e-11
0.000609041
-1.16238e-11
0.000609041
1.47239e-11
0.000609041
7.95974e-12
0.000609041
-1.20138e-10
1.04673e-10
0.000596065
4.67332e-10
0.000596065
5.4344e-10
0.000596065
2.79723e-10
0.000596065
1.98752e-10
0.000596065
1.12514e-10
0.000596065
5.75088e-11
0.000596065
3.47375e-11
0.000596065
9.82824e-12
0.000596065
1.80509e-11
0.000596065
6.19734e-13
0.000596065
2.24543e-11
0.000596065
-3.87858e-12
0.000596065
2.96353e-11
0.000596065
-1.06462e-11
0.000596065
3.46581e-11
0.000596065
-1.58189e-11
0.000596065
2.12663e-11
0.000596065
-6.83469e-12
0.000596065
-6.92743e-11
1.72068e-10
0.000576758
3.18815e-10
0.000576758
3.46998e-10
0.000576759
1.5369e-10
0.000576759
1.05702e-10
0.000576759
5.83076e-11
0.000576759
2.75981e-11
0.000576759
1.80353e-11
0.000576759
3.02603e-12
0.000576759
1.14291e-11
0.000576759
-1.92433e-12
0.000576759
1.56351e-11
0.000576759
-5.13865e-12
0.000576759
2.1299e-11
0.000576759
-9.97084e-12
0.000576759
2.52532e-11
0.000576759
-1.4142e-11
0.000576759
1.86976e-11
0.000576759
-9.25106e-12
0.000576759
-3.75798e-11
1.60196e-10
0.00055112
1.23816e-10
0.000551121
1.26985e-10
0.000551121
4.84643e-11
0.000551121
2.9299e-11
0.000551121
1.72986e-11
0.000551121
6.941e-12
0.000551121
5.49292e-12
0.000551121
-5.34863e-14
0.000551121
4.72018e-12
0.000551121
-1.53237e-12
0.000551121
7.04397e-12
0.000551121
-2.94254e-12
0.000551121
9.6372e-12
0.000551121
-5.16287e-12
0.000551121
1.14131e-11
0.000551121
-7.46391e-12
0.000551121
9.77323e-12
0.000551121
-4.94083e-12
0.000551121
-1.79628e-11
8.3084e-11
0.000519151
0.000519151
0.000519151
0.000519151
0.000519151
0.000519151
0.000519151
0.000519151
0.000519151
0.000519151
0.000519151
0.000519151
0.000519151
0.000519151
0.000519151
0.000519151
0.000519151
0.000519151
0.000519151
)
;

boundaryField
{
    top
    {
        type            calculated;
        value           uniform 0;
    }
    bottom
    {
        type            calculated;
        value           uniform 0;
    }
    inlet
    {
        type            calculated;
        value           nonuniform List<scalar> 
20
(
-4.41505e-05
-0.000126119
-0.000201757
-0.000271063
-0.000334039
-0.000390685
-0.000441002
-0.000484989
-0.000522647
-0.000553976
-0.000578977
-0.000597648
-0.00060999
-0.000616004
-0.000615687
-0.000609041
-0.000596065
-0.000576758
-0.00055112
-0.000519151
)
;
    }
    outlet
    {
        type            calculated;
        value           nonuniform List<scalar> 
20
(
4.41512e-05
0.000126121
0.000201759
0.000271065
0.000334041
0.000390686
0.000441002
0.000484989
0.000522646
0.000553975
0.000578975
0.000597646
0.000609989
0.000616002
0.000615687
0.000609041
0.000596065
0.000576759
0.000551121
0.000519151
)
;
    }
    frontAndBack
    {
        type            empty;
        value           nonuniform 0();
    }
}


// ************************************************************************* //
