/*--------------------------------*- C++ -*----------------------------------*\
| =========                 |                                                 |
| \\      /  F ield         | OpenFOAM: The Open Source CFD Toolbox           |
|  \\    /   O peration     | Version:  v1706                                 |
|   \\  /    A nd           | Web:      www.OpenFOAM.com                      |
|    \\/     M anipulation  |                                                 |
\*---------------------------------------------------------------------------*/
FoamFile
{
    version     2.0;
    format      ascii;
    class       volVectorField;
    location    "0.9";
    object      U;
}
// * * * * * * * * * * * * * * * * * * * * * * * * * * * * * * * * * * * * * //

dimensions      [0 1 -1 0 0 0 0];


internalField   nonuniform List<vector> 
400
(
(0.883011 -9.17113e-08 0)
(0.883016 -8.81645e-08 0)
(0.883019 -1.58965e-08 0)
(0.883019 -8.23721e-09 0)
(0.88302 -2.15245e-09 0)
(0.883019 5.00054e-10 0)
(0.88302 -8.06794e-10 0)
(0.883019 1.34715e-09 0)
(0.88302 -1.28979e-09 0)
(0.883019 2.73205e-09 0)
(0.88302 -1.60721e-09 0)
(0.883019 4.39475e-09 0)
(0.88302 -2.62766e-09 0)
(0.883019 5.75708e-09 0)
(0.88302 -4.07955e-09 0)
(0.883019 6.42054e-09 0)
(0.88302 -5.20465e-09 0)
(0.88302 4.72603e-09 0)
(0.883019 -1.52647e-08 0)
(0.883022 -7.38611e-08 0)
(2.52239 -3.72381e-07 0)
(2.5224 -3.97343e-07 0)
(2.52241 -1.06939e-07 0)
(2.52241 -3.90711e-08 0)
(2.52241 -1.05607e-08 0)
(2.52241 2.50964e-09 0)
(2.52241 -1.4161e-09 0)
(2.52241 4.73232e-09 0)
(2.52241 -4.06742e-09 0)
(2.52241 8.36249e-09 0)
(2.52241 -5.66896e-09 0)
(2.52241 1.34016e-08 0)
(2.52241 -9.4414e-09 0)
(2.52241 1.85045e-08 0)
(2.52241 -1.47486e-08 0)
(2.52241 2.28491e-08 0)
(2.52241 -2.138e-08 0)
(2.52241 2.35685e-08 0)
(2.52241 -8.07332e-08 0)
(2.52242 -2.92743e-07 0)
(4.03514 -7.91418e-07 0)
(4.03515 -9.50408e-07 0)
(4.03516 -2.93246e-07 0)
(4.03516 -9.19132e-08 0)
(4.03516 -2.7137e-08 0)
(4.03516 5.5933e-09 0)
(4.03516 -2.12218e-10 0)
(4.03516 9.68423e-09 0)
(4.03516 -4.66867e-09 0)
(4.03516 1.65044e-08 0)
(4.03516 -6.66119e-09 0)
(4.03516 2.5015e-08 0)
(4.03516 -1.38271e-08 0)
(4.03516 3.36857e-08 0)
(4.03516 -2.57053e-08 0)
(4.03516 4.6898e-08 0)
(4.03516 -5.47418e-08 0)
(4.03516 7.7811e-08 0)
(4.03516 -2.15975e-07 0)
(4.03517 -6.28153e-07 0)
(5.42127 -1.22538e-06 0)
(5.42128 -1.56764e-06 0)
(5.42129 -5.35321e-07 0)
(5.42129 -1.56515e-07 0)
(5.42129 -4.53176e-08 0)
(5.42129 1.04894e-08 0)
(5.42129 3.86207e-09 0)
(5.42129 1.48801e-08 0)
(5.42129 -4.16232e-09 0)
(5.42129 2.24936e-08 0)
(5.42129 -7.61948e-09 0)
(5.42129 3.24464e-08 0)
(5.42129 -1.86246e-08 0)
(5.42129 4.4323e-08 0)
(5.42129 -3.7245e-08 0)
(5.42129 6.98185e-08 0)
(5.42129 -9.44345e-08 0)
(5.42129 1.43842e-07 0)
(5.42129 -3.74929e-07 0)
(5.4213 -9.84458e-07 0)
(6.68079 -1.58642e-06 0)
(6.6808 -2.12329e-06 0)
(6.68081 -7.76968e-07 0)
(6.68081 -2.18172e-07 0)
(6.68081 -5.98945e-08 0)
(6.68081 1.72896e-08 0)
(6.68081 1.02721e-08 0)
(6.68081 2.04054e-08 0)
(6.68081 -1.52135e-09 0)
(6.68081 2.83803e-08 0)
(6.68081 -5.46172e-09 0)
(6.68081 3.93019e-08 0)
(6.68081 -1.94788e-08 0)
(6.6808 5.35186e-08 0)
(6.68081 -4.48753e-08 0)
(6.6808 9.19026e-08 0)
(6.68081 -1.34231e-07 0)
(6.68081 2.14271e-07 0)
(6.68081 -5.22593e-07 0)
(6.68081 -1.30342e-06 0)
(7.81371 -1.82285e-06 0)
(7.81371 -2.52414e-06 0)
(7.81372 -9.71404e-07 0)
(7.81372 -2.63022e-07 0)
(7.81372 -6.54147e-08 0)
(7.81372 2.72299e-08 0)
(7.81372 1.91495e-08 0)
(7.81372 2.62179e-08 0)
(7.81372 2.41003e-09 0)
(7.81372 3.31227e-08 0)
(7.81372 -2.03933e-09 0)
(7.81372 4.40658e-08 0)
(7.81372 -1.83749e-08 0)
(7.81372 5.96441e-08 0)
(7.81372 -4.95216e-08 0)
(7.81372 1.09927e-07 0)
(7.81372 -1.69004e-07 0)
(7.81372 2.75992e-07 0)
(7.81372 -6.35644e-07 0)
(7.81372 -1.54547e-06 0)
(8.82004 -1.91131e-06 0)
(8.82004 -2.71922e-06 0)
(8.82004 -1.08238e-06 0)
(8.82004 -2.78069e-07 0)
(8.82004 -5.75764e-08 0)
(8.82004 4.10973e-08 0)
(8.82004 3.02372e-08 0)
(8.82004 3.21982e-08 0)
(8.82004 7.34205e-09 0)
(8.82004 3.66921e-08 0)
(8.82004 2.41228e-09 0)
(8.82004 4.69407e-08 0)
(8.82004 -1.52535e-08 0)
(8.82004 6.27755e-08 0)
(8.82004 -5.04733e-08 0)
(8.82004 1.22175e-07 0)
(8.82004 -1.94117e-07 0)
(8.82004 3.20636e-07 0)
(8.82004 -7.04942e-07 0)
(8.82004 -1.68807e-06 0)
(9.69978 -1.84883e-06 0)
(9.69977 -2.68971e-06 0)
(9.69978 -1.08836e-06 0)
(9.69977 -2.5439e-07 0)
(9.69978 -3.37509e-08 0)
(9.69977 5.91771e-08 0)
(9.69977 4.30577e-08 0)
(9.69977 3.8069e-08 0)
(9.69977 1.28907e-08 0)
(9.69977 3.88938e-08 0)
(9.69977 7.48386e-09 0)
(9.69977 4.78118e-08 0)
(9.69978 -1.03411e-08 0)
(9.69977 6.27163e-08 0)
(9.69978 -4.73695e-08 0)
(9.69977 1.27078e-07 0)
(9.69978 -2.06197e-07 0)
(9.69977 3.4288e-07 0)
(9.69978 -7.29654e-07 0)
(9.69977 -1.72154e-06 0)
(10.4529 -1.65028e-06 0)
(10.4529 -2.44751e-06 0)
(10.4529 -9.85444e-07 0)
(10.4529 -1.89737e-07 0)
(10.4529 5.89776e-09 0)
(10.4529 8.08126e-08 0)
(10.4529 5.67577e-08 0)
(10.4529 4.33887e-08 0)
(10.4529 1.86072e-08 0)
(10.4529 3.9562e-08 0)
(10.4529 1.27681e-08 0)
(10.4529 4.66006e-08 0)
(10.4529 -3.96807e-09 0)
(10.4529 5.94206e-08 0)
(10.4529 -4.01964e-08 0)
(10.4529 1.23825e-07 0)
(10.4529 -2.03683e-07 0)
(10.4529 3.411e-07 0)
(10.4529 -7.1449e-07 0)
(10.4529 -1.64889e-06 0)
(11.0795 -1.34424e-06 0)
(11.0795 -2.0304e-06 0)
(11.0795 -7.87756e-07 0)
(11.0795 -8.99563e-08 0)
(11.0795 5.78521e-08 0)
(11.0795 1.04141e-07 0)
(11.0795 7.00622e-08 0)
(11.0795 4.75778e-08 0)
(11.0795 2.40069e-08 0)
(11.0795 3.86245e-08 0)
(11.0795 1.79139e-08 0)
(11.0795 4.33703e-08 0)
(11.0795 3.45567e-09 0)
(11.0795 5.31166e-08 0)
(11.0795 -2.93791e-08 0)
(11.0795 1.12623e-07 0)
(11.0795 -1.87035e-07 0)
(11.0795 3.17037e-07 0)
(11.0795 -6.6702e-07 0)
(11.0795 -1.48362e-06 0)
(11.5795 -9.68459e-07 0)
(11.5795 -1.49519e-06 0)
(11.5795 -5.24693e-07 0)
(11.5795 3.14048e-08 0)
(11.5795 1.15348e-07 0)
(11.5795 1.26151e-07 0)
(11.5795 8.13534e-08 0)
(11.5795 4.99773e-08 0)
(11.5795 2.85816e-08 0)
(11.5795 3.60906e-08 0)
(11.5795 2.25812e-08 0)
(11.5795 3.83232e-08 0)
(11.5795 1.14037e-08 0)
(11.5795 4.43085e-08 0)
(11.5795 -1.58421e-08 0)
(11.5795 9.47347e-08 0)
(11.5795 -1.5863e-07 0)
(11.5795 2.75051e-07 0)
(11.5795 -5.95796e-07 0)
(11.5795 -1.24704e-06 0)
(11.953 -5.65406e-07 0)
(11.9529 -9.09887e-07 0)
(11.9529 -2.35943e-07 0)
(11.9529 1.55338e-07 0)
(11.9529 1.69249e-07 0)
(11.9529 1.43101e-07 0)
(11.9529 8.88875e-08 0)
(11.9529 4.99712e-08 0)
(11.9529 3.18496e-08 0)
(11.9529 3.20743e-08 0)
(11.9529 2.6454e-08 0)
(11.9529 3.18179e-08 0)
(11.9529 1.92496e-08 0)
(11.9529 3.37771e-08 0)
(11.9529 -9.49787e-10 0)
(11.9529 7.23227e-08 0)
(11.9529 -1.22341e-07 0)
(11.9529 2.21189e-07 0)
(11.9529 -5.09147e-07 0)
(11.9529 -9.65498e-07 0)
(12.1998 -1.78413e-07 0)
(12.1998 -3.45613e-07 0)
(12.1998 3.50785e-08 0)
(12.1998 2.6094e-07 0)
(12.1998 2.09856e-07 0)
(12.1998 1.51298e-07 0)
(12.1998 9.11361e-08 0)
(12.1998 4.71466e-08 0)
(12.1998 3.34213e-08 0)
(12.1998 2.68072e-08 0)
(12.1998 2.92905e-08 0)
(12.1998 2.43405e-08 0)
(12.1998 2.62824e-08 0)
(12.1998 2.24877e-08 0)
(12.1998 1.36346e-08 0)
(12.1998 4.81326e-08 0)
(12.1998 -8.291e-08 0)
(12.1998 1.62274e-07 0)
(12.1998 -4.14724e-07 0)
(12.1998 -6.67731e-07 0)
(12.3201 1.51996e-07 0)
(12.3201 1.31563e-07 0)
(12.3201 2.4851e-07 0)
(12.3201 3.2968e-07 0)
(12.3201 2.29095e-07 0)
(12.3201 1.48058e-07 0)
(12.3201 8.71808e-08 0)
(12.3201 4.14541e-08 0)
(12.3201 3.30629e-08 0)
(12.3201 2.06487e-08 0)
(12.3201 3.08208e-08 0)
(12.3201 1.64718e-08 0)
(12.3201 3.17582e-08 0)
(12.3201 1.14751e-08 0)
(12.3201 2.61646e-08 0)
(12.3201 2.50556e-08 0)
(12.3201 -4.52409e-08 0)
(12.32 1.0511e-07 0)
(12.3201 -3.1949e-07 0)
(12.32 -3.82486e-07 0)
(12.3137 3.91801e-07 0)
(12.3137 4.68509e-07 0)
(12.3137 3.75259e-07 0)
(12.3137 3.49643e-07 0)
(12.3137 2.22606e-07 0)
(12.3137 1.32588e-07 0)
(12.3137 7.70514e-08 0)
(12.3137 3.33286e-08 0)
(12.3137 3.07587e-08 0)
(12.3137 1.41065e-08 0)
(12.3137 3.07846e-08 0)
(12.3137 8.88543e-09 0)
(12.3137 3.50569e-08 0)
(12.3137 1.77922e-09 0)
(12.3137 3.51014e-08 0)
(12.3137 5.67451e-09 0)
(12.3137 -1.36509e-08 0)
(12.3137 5.57704e-08 0)
(12.3137 -2.30017e-07 0)
(12.3137 -1.36242e-07 0)
(12.1808 5.17483e-07 0)
(12.1808 6.32669e-07 0)
(12.1808 4.02812e-07 0)
(12.1808 3.18733e-07 0)
(12.1808 1.91145e-07 0)
(12.1808 1.06524e-07 0)
(12.1808 6.18728e-08 0)
(12.1808 2.36988e-08 0)
(12.1808 2.66895e-08 0)
(12.1808 7.77515e-09 0)
(12.1808 2.89807e-08 0)
(12.1808 2.2538e-09 0)
(12.1808 3.55658e-08 0)
(12.1808 -5.7178e-09 0)
(12.1808 3.92664e-08 0)
(12.1808 -8.14933e-09 0)
(12.1808 8.72424e-09 0)
(12.1808 1.89407e-08 0)
(12.1808 -1.52403e-07 0)
(12.1808 4.89127e-08 0)
(11.9213 5.17931e-07 0)
(11.9213 6.18402e-07 0)
(11.9213 3.39973e-07 0)
(11.9213 2.45579e-07 0)
(11.9213 1.40976e-07 0)
(11.9213 7.39018e-08 0)
(11.9213 4.37501e-08 0)
(11.9213 1.38974e-08 0)
(11.9213 2.11026e-08 0)
(11.9213 2.21225e-09 0)
(11.9213 2.4977e-08 0)
(11.9213 -3.00044e-09 0)
(11.9213 3.23783e-08 0)
(11.9213 -1.05606e-08 0)
(11.9213 3.7655e-08 0)
(11.9213 -1.57043e-08 0)
(11.9213 2.0272e-08 0)
(11.9213 -3.02901e-09 0)
(11.9213 -9.23429e-08 0)
(11.9213 1.56956e-07 0)
(11.5352 4.08256e-07 0)
(11.5352 4.60246e-07 0)
(11.5352 2.1701e-07 0)
(11.5352 1.51305e-07 0)
(11.5352 8.33703e-08 0)
(11.5352 4.08385e-08 0)
(11.5352 2.54596e-08 0)
(11.5352 5.68766e-09 0)
(11.5352 1.48546e-08 0)
(11.5352 -8.11375e-10 0)
(11.5352 1.99522e-08 0)
(11.5352 -4.29645e-09 0)
(11.5352 2.70188e-08 0)
(11.5352 -1.00841e-08 0)
(11.5352 3.17154e-08 0)
(11.5352 -1.52453e-08 0)
(11.5352 2.20999e-08 0)
(11.5352 -1.00536e-08 0)
(11.5352 -4.87403e-08 0)
(11.5352 1.81059e-07 0)
(11.0224 2.20824e-07 0)
(11.0224 2.33854e-07 0)
(11.0224 9.5714e-08 0)
(11.0224 6.04224e-08 0)
(11.0224 3.40429e-08 0)
(11.0224 1.47092e-08 0)
(11.0224 1.04757e-08 0)
(11.0224 5.96753e-10 0)
(11.0224 7.74829e-09 0)
(11.0224 -2.39371e-09 0)
(11.0224 1.12093e-08 0)
(11.0224 -4.74528e-09 0)
(11.0224 1.55461e-08 0)
(11.0224 -8.22623e-09 0)
(11.0224 1.86834e-08 0)
(11.0224 -1.16904e-08 0)
(11.0224 1.5515e-08 0)
(11.0224 -8.62962e-09 0)
(11.0224 -2.72205e-08 0)
(11.0224 1.31348e-07 0)
(10.383 6.74221e-08 0)
(10.383 6.22865e-08 0)
(10.383 1.66861e-08 0)
(10.383 1.27926e-08 0)
(10.383 6.36881e-09 0)
(10.383 2.30371e-09 0)
(10.383 2.14078e-09 0)
(10.383 -4.64351e-10 0)
(10.383 2.21399e-09 0)
(10.383 -1.02354e-09 0)
(10.383 3.58651e-09 0)
(10.383 -1.6332e-09 0)
(10.383 5.10216e-09 0)
(10.383 -2.65353e-09 0)
(10.383 6.03324e-09 0)
(10.383 -3.62024e-09 0)
(10.383 4.92645e-09 0)
(10.383 -2.65704e-09 0)
(10.383 -4.48004e-09 0)
(10.383 4.56836e-08 0)
)
;

boundaryField
{
    top
    {
        type            fixedValue;
        value           uniform (10 0 0);
    }
    bottom
    {
        type            fixedValue;
        value           uniform (0 0 0);
    }
    inlet
    {
        type            zeroGradient;
    }
    outlet
    {
        type            zeroGradient;
    }
    frontAndBack
    {
        type            empty;
    }
}


// ************************************************************************* //
