/*--------------------------------*- C++ -*----------------------------------*\
| =========                 |                                                 |
| \\      /  F ield         | OpenFOAM: The Open Source CFD Toolbox           |
|  \\    /   O peration     | Version:  v1706                                 |
|   \\  /    A nd           | Web:      www.OpenFOAM.com                      |
|    \\/     M anipulation  |                                                 |
\*---------------------------------------------------------------------------*/
FoamFile
{
    version     2.0;
    format      ascii;
    class       surfaceScalarField;
    location    "0.5";
    object      phi;
}
// * * * * * * * * * * * * * * * * * * * * * * * * * * * * * * * * * * * * * //

dimensions      [0 3 -1 0 0 0 0];
oriented        oriented;


internalField   nonuniform List<scalar> 
760
(
4.37486e-05
1.54598e-09
4.3748e-05
6.30756e-10
4.3749e-05
-9.79197e-10
4.37491e-05
-1.30735e-10
4.37492e-05
-1.14978e-10
4.37493e-05
-2.86328e-11
4.37493e-05
-8.08492e-12
4.37493e-05
-2.85111e-13
4.37493e-05
1.44116e-11
4.37492e-05
7.72873e-12
4.37493e-05
-4.91799e-11
4.37492e-05
6.21327e-11
4.37493e-05
-6.45475e-11
4.37492e-05
1.03015e-10
4.37493e-05
-1.54355e-10
4.37492e-05
1.83283e-10
4.37494e-05
-2.30511e-10
4.37491e-05
2.60578e-10
4.37486e-05
4.68664e-10
-6.22687e-10
0.000124924
4.45066e-09
0.000124922
2.1552e-09
0.000124924
-2.85323e-09
0.000124925
-7.27009e-10
0.000124925
-3.27456e-10
0.000124925
-1.10397e-10
0.000124925
-8.23712e-12
0.000124925
-4.89004e-12
0.000124925
2.26565e-11
0.000124925
1.92927e-11
0.000124925
-9.41021e-11
0.000124925
1.33548e-10
0.000124925
-1.55218e-10
0.000124925
2.32231e-10
0.000124925
-3.40365e-10
0.000124925
4.56614e-10
0.000124925
-6.85089e-10
0.000124925
9.57996e-10
0.000124924
1.35909e-09
-1.6539e-09
0.000199798
7.73388e-09
0.000199795
4.26179e-09
0.000199797
-4.83655e-09
0.000199798
-1.62478e-09
0.000199799
-5.44803e-10
0.000199799
-2.0835e-10
0.000199799
-6.20801e-13
0.000199799
-4.84977e-12
0.000199799
2.54172e-11
0.000199799
2.9508e-11
0.000199799
-1.21745e-10
0.000199799
1.8662e-10
0.000199799
-2.23511e-10
0.000199799
3.24774e-10
0.000199799
-4.81162e-10
0.000199798
7.16446e-10
0.000199799
-1.24188e-09
0.000199798
1.89583e-09
0.000199797
2.433e-09
-2.69638e-09
0.000268389
1.08626e-08
0.000268386
6.62563e-09
0.000268388
-6.46686e-09
0.000268389
-2.56825e-09
0.000268389
-7.31833e-10
0.000268389
-2.90709e-10
0.000268389
1.23408e-11
0.000268389
4.57089e-12
0.000268389
2.80008e-11
0.000268389
3.85181e-11
0.000268389
-1.40277e-10
0.000268389
2.24973e-10
0.000268389
-2.65971e-10
0.000268389
3.81312e-10
0.000268389
-5.81258e-10
0.000268389
9.49758e-10
0.00026839
-1.83394e-09
0.000268389
2.89028e-09
0.000268387
3.59605e-09
-3.59898e-09
0.000330715
1.34099e-08
0.000330713
8.91641e-09
0.000330714
-7.46083e-09
0.000330715
-3.35882e-09
0.000330715
-8.6002e-10
0.000330715
-3.38644e-10
0.000330715
3.13739e-11
0.000330715
2.38102e-11
0.000330715
3.10081e-11
0.000330715
4.74717e-11
0.000330715
-1.5108e-10
0.000330715
2.49191e-10
0.000330715
-2.85493e-10
0.000330715
4.05015e-10
0.000330715
-6.40423e-10
0.000330715
1.14379e-09
0.000330715
-2.39205e-09
0.000330714
3.80295e-09
0.000330713
4.75321e-09
-4.24702e-09
0.000386794
1.5065e-08
0.000386792
1.08282e-08
0.000386792
-7.68425e-09
0.000386793
-3.84432e-09
0.000386793
-8.96288e-10
0.000386793
-3.38671e-10
0.000386793
5.82923e-11
0.000386792
5.1677e-11
0.000386792
3.46464e-11
0.000386792
5.65514e-11
0.000386792
-1.5481e-10
0.000386792
2.59978e-10
0.000386792
-2.84487e-10
0.000386792
3.98735e-10
0.000386792
-6.58771e-10
0.000386792
1.28379e-09
0.000386793
-2.85347e-09
0.000386792
4.53367e-09
0.000386791
5.80347e-09
-4.57107e-09
0.000436638
1.56412e-08
0.000436637
1.21069e-08
0.000436636
-7.13615e-09
0.000436637
-3.93386e-09
0.000436636
-8.13276e-10
0.000436636
-2.83233e-10
0.000436636
9.46042e-11
0.000436636
8.60846e-11
0.000436636
3.88852e-11
0.000436636
6.52732e-11
0.000436636
-1.51881e-10
0.000436636
2.58002e-10
0.000436636
-2.65092e-10
0.000436636
3.65217e-10
0.000436636
-6.36545e-10
0.000436636
1.35536e-09
0.000436637
-3.16773e-09
0.000436636
5.0211e-09
0.000436635
6.64748e-09
-4.5491e-09
0.000480261
1.50813e-08
0.00048026
1.25791e-08
0.000480259
-5.92303e-09
0.000480259
-3.6054e-09
0.000480259
-5.9921e-10
0.000480259
-1.72029e-10
0.000480259
1.4029e-10
0.000480259
1.24281e-10
0.000480258
4.34443e-11
0.000480258
7.27395e-11
0.000480258
-1.42668e-10
0.000480258
2.43975e-10
0.000480258
-2.29465e-10
0.000480259
3.07451e-10
0.000480258
-5.74781e-10
0.000480258
1.34765e-09
0.000480259
-3.30172e-09
0.000480258
5.24012e-09
0.000480258
7.19947e-09
-4.20217e-09
0.000517671
1.34567e-08
0.000517671
1.2176e-08
0.000517669
-4.22668e-09
0.000517669
-2.90418e-09
0.000517668
-2.64621e-10
0.000517668
-1.33866e-11
0.000517668
1.92888e-10
0.000517668
1.62899e-10
0.000517668
4.78102e-11
0.000517668
7.78653e-11
0.000517668
-1.27646e-10
0.000517668
2.18815e-10
0.000517668
-1.80056e-10
0.000517668
2.29116e-10
0.000517668
-4.76416e-10
0.000517668
1.25655e-09
0.000517668
-3.24293e-09
0.000517668
5.19587e-09
0.000517668
7.39919e-09
-3.58568e-09
0.000548874
1.09572e-08
0.000548875
1.09447e-08
0.000548873
-2.27024e-09
0.000548872
-1.93237e-09
0.000548872
1.55891e-10
0.000548872
1.75322e-10
0.000548872
2.47152e-10
0.000548872
1.98048e-10
0.000548872
5.12922e-11
0.000548872
7.95854e-11
0.000548872
-1.07499e-10
0.000548872
1.83833e-10
0.000548872
-1.19834e-10
0.000548872
1.35022e-10
0.000548872
-3.47351e-10
0.000548872
1.08695e-09
0.000548871
-3.0003e-09
0.000548872
4.91623e-09
0.000548872
7.22084e-09
-2.77837e-09
0.000573874
7.87026e-09
0.000573876
9.04528e-09
0.000573874
-2.8658e-10
0.000573873
-8.31844e-10
0.000573872
6.07418e-10
0.000573872
3.69065e-10
0.000573872
2.95472e-10
0.000573872
2.25566e-10
0.000573872
5.31321e-11
0.000573872
7.70551e-11
0.000573872
-8.31985e-11
0.000573872
1.40894e-10
0.000573872
-5.24566e-11
0.000573872
3.13922e-11
0.000573872
-1.97062e-10
0.000573872
8.53655e-10
0.000573872
-2.60258e-09
0.000573872
4.44406e-09
0.000573873
6.67744e-09
-1.87118e-09
0.000592671
4.55022e-09
0.000592673
6.72998e-09
0.000592671
1.50789e-09
0.00059267
2.37635e-10
0.00059267
1.02343e-09
0.000592669
5.38605e-10
0.000592669
3.2914e-10
0.000592669
2.41512e-10
0.000592669
5.26612e-11
0.000592669
6.98365e-11
0.000592669
-5.60659e-11
0.000592669
9.25462e-11
0.000592669
1.76536e-11
0.000592669
-7.40983e-11
0.000592669
-3.84897e-11
0.00059267
5.80446e-10
0.000592669
-2.09473e-09
0.00059267
3.83051e-09
0.000592671
5.82036e-09
-9.57067e-10
0.000605261
1.37898e-09
0.000605263
4.30834e-09
0.000605262
2.93254e-09
0.000605261
1.12225e-09
0.000605261
1.33781e-09
0.00060526
6.55667e-10
0.00060526
3.40298e-10
0.00060526
2.42829e-10
0.00060526
4.94765e-11
0.00060526
5.80527e-11
0.00060526
-2.78062e-11
0.00060526
4.20898e-11
0.00060526
8.53357e-11
0.00060526
-1.72592e-10
0.00060526
1.1286e-10
0.000605261
2.97578e-10
0.00060526
-1.53267e-09
0.000605261
3.13019e-09
0.000605262
4.73436e-09
-1.22651e-10
0.000611638
-1.27855e-09
0.00061164
2.10017e-09
0.000611639
3.85494e-09
0.000611639
1.6979e-09
0.000611639
1.4981e-09
0.000611639
6.98876e-10
0.000611639
3.24137e-10
0.000611639
2.28065e-10
0.000611639
4.35929e-11
0.000611639
4.24909e-11
0.000611639
-5.29587e-13
0.000611639
-6.40032e-12
0.000611639
1.44796e-10
0.000611639
-2.54571e-10
0.000611639
2.40487e-10
0.000611639
3.79659e-11
0.000611638
-9.77085e-10
0.000611639
2.39834e-09
0.00061164
3.52928e-09
5.58093e-10
0.000611794
-3.12151e-09
0.000611795
3.82405e-10
0.000611795
4.19865e-09
0.000611795
1.89212e-09
0.000611795
1.47726e-09
0.000611795
6.59185e-10
0.000611795
2.80767e-10
0.000611795
1.97941e-10
0.000611795
3.55159e-11
0.000611795
2.46425e-11
0.000611795
2.32452e-11
0.000611795
-4.81102e-11
0.000611795
1.89768e-10
0.000611795
-3.10546e-10
0.000611795
3.28849e-10
0.000611795
-1.67364e-10
0.000611795
-4.86504e-10
0.000611795
1.68944e-09
0.000611797
2.32912e-09
1.02828e-09
0.000605716
-3.96001e-09
0.000605717
-6.64581e-10
0.000605717
3.94999e-09
0.000605717
1.70264e-09
0.000605717
1.28156e-09
0.000605717
5.43461e-10
0.000605717
2.1608e-10
0.000605717
1.55583e-10
0.000605717
2.61967e-11
0.000605717
6.69305e-12
0.000605717
4.06034e-11
0.000605717
-7.76012e-11
0.000605717
2.13666e-10
0.000605717
-3.31742e-10
0.000605717
3.65318e-10
0.000605718
-2.93858e-10
0.000605717
-1.09954e-10
0.000605718
1.05649e-09
0.000605719
1.25992e-09
1.25119e-09
0.000593389
-3.75976e-09
0.000593389
-1.00481e-09
0.00059339
3.16771e-09
0.000593391
1.21066e-09
0.000593391
9.51804e-10
0.000593391
3.75215e-10
0.000593391
1.41113e-10
0.000593391
1.06377e-10
0.000593391
1.69187e-11
0.000593391
-8.50515e-12
0.000593391
4.82182e-11
0.000593391
-8.90634e-11
0.000593391
2.0974e-10
0.000593391
-3.10693e-10
0.000593391
3.41755e-10
0.000593391
-3.27143e-10
0.000593391
1.20502e-10
0.000593392
5.49401e-10
0.000593393
4.36955e-10
1.21249e-09
0.000574798
-2.68491e-09
0.000574798
-7.83754e-10
0.000574799
2.00048e-09
0.0005748
5.86241e-10
0.0005748
5.5631e-10
0.0005748
1.92173e-10
0.0005748
6.97052e-11
0.0005748
5.76421e-11
0.0005748
9.24855e-12
0.0005748
-1.73566e-11
0.0005748
4.22381e-11
0.0005748
-7.69053e-11
0.0005748
1.71092e-10
0.0005748
-2.41462e-10
0.0005748
2.55625e-10
0.0005748
-2.64978e-10
0.0005748
1.96684e-10
0.000574801
2.10929e-10
0.000574801
-4.71822e-11
9.22536e-10
0.000549924
-1.1071e-09
0.000549924
-3.13208e-10
0.000549925
7.35555e-10
0.000549926
1.07931e-10
0.000549926
1.88994e-10
0.000549926
4.81516e-11
0.000549926
1.73469e-11
0.000549926
1.88781e-11
0.000549926
4.70986e-12
0.000549926
-1.56146e-11
0.000549926
1.85987e-11
0.000549926
-3.55724e-11
0.000549926
9.13729e-11
0.000549926
-1.20932e-10
0.000549926
1.09062e-10
0.000549926
-1.172e-10
0.000549926
1.29072e-10
0.000549926
3.92941e-11
0.000549927
-1.45986e-10
4.25777e-10
0.000518749
0.000518748
0.000518749
0.000518749
0.00051875
0.00051875
0.00051875
0.00051875
0.00051875
0.00051875
0.00051875
0.00051875
0.00051875
0.00051875
0.00051875
0.00051875
0.00051875
0.00051875
0.00051875
)
;

boundaryField
{
    top
    {
        type            calculated;
        value           uniform 0;
    }
    bottom
    {
        type            calculated;
        value           uniform 0;
    }
    inlet
    {
        type            calculated;
        value           nonuniform List<scalar> 
20
(
-4.37502e-05
-0.000124927
-0.000199801
-0.000268392
-0.000330718
-0.000386795
-0.000436639
-0.00048026
-0.000517669
-0.000548872
-0.000573871
-0.000592667
-0.000605258
-0.000611636
-0.000611792
-0.000605715
-0.000593389
-0.000574799
-0.000549926
-0.00051875
)
;
    }
    outlet
    {
        type            calculated;
        value           nonuniform List<scalar> 
20
(
4.37493e-05
0.000124925
0.000199798
0.000268388
0.000330714
0.000386791
0.000436635
0.000480257
0.000517667
0.000548871
0.000573872
0.00059267
0.000605261
0.00061164
0.000611796
0.000605719
0.000593393
0.000574801
0.000549927
0.00051875
)
;
    }
    frontAndBack
    {
        type            empty;
        value           nonuniform 0();
    }
}


// ************************************************************************* //
