/*--------------------------------*- C++ -*----------------------------------*\
| =========                 |                                                 |
| \\      /  F ield         | OpenFOAM: The Open Source CFD Toolbox           |
|  \\    /   O peration     | Version:  v1706                                 |
|   \\  /    A nd           | Web:      www.OpenFOAM.com                      |
|    \\/     M anipulation  |                                                 |
\*---------------------------------------------------------------------------*/
FoamFile
{
    version     2.0;
    format      ascii;
    class       volVectorField;
    location    "0.5";
    object      U;
}
// * * * * * * * * * * * * * * * * * * * * * * * * * * * * * * * * * * * * * //

dimensions      [0 1 -1 0 0 0 0];


internalField   nonuniform List<vector> 
400
(
(0.874994 7.3589e-07 0)
(0.874959 2.27045e-07 0)
(0.874967 -5.15967e-07 0)
(0.874985 -4.68497e-08 0)
(0.874983 -5.99267e-08 0)
(0.874985 -1.06166e-08 0)
(0.874985 -5.94518e-09 0)
(0.874985 -4.96679e-09 0)
(0.874985 6.03978e-09 0)
(0.874985 8.39804e-09 0)
(0.874985 -2.35068e-08 0)
(0.874985 2.70458e-08 0)
(0.874986 -3.51081e-08 0)
(0.874984 5.755e-08 0)
(0.874987 -7.70443e-08 0)
(0.874984 8.43065e-08 0)
(0.874986 -9.53458e-08 0)
(0.874988 1.3255e-07 0)
(0.874974 2.0512e-07 0)
(0.874981 -3.22307e-07 0)
(2.49852 2.81447e-06 0)
(2.49845 1.23696e-06 0)
(2.49846 -1.80012e-06 0)
(2.4985 -3.31263e-07 0)
(2.4985 -2.06483e-07 0)
(2.4985 -6.2938e-08 0)
(2.4985 -9.71706e-09 0)
(2.4985 -2.17098e-09 0)
(2.4985 2.15372e-08 0)
(2.4985 1.29019e-08 0)
(2.4985 -7.54701e-08 0)
(2.4985 9.9945e-08 0)
(2.49851 -1.08834e-07 0)
(2.4985 1.68366e-07 0)
(2.49851 -2.51257e-07 0)
(2.4985 3.15716e-07 0)
(2.49851 -4.2739e-07 0)
(2.49851 5.24067e-07 0)
(2.49848 8.47966e-07 0)
(2.49849 -1.09156e-06 0)
(3.996 6.03707e-06 0)
(3.99591 3.06213e-06 0)
(3.99592 -3.89545e-06 0)
(3.99597 -1.13752e-06 0)
(3.99597 -4.35484e-07 0)
(3.99597 -1.56982e-07 0)
(3.99597 -5.5695e-09 0)
(3.99597 -9.04406e-09 0)
(3.99597 2.29307e-08 0)
(3.99597 2.63564e-08 0)
(3.99597 -1.08119e-07 0)
(3.99597 1.59942e-07 0)
(3.99598 -1.94052e-07 0)
(3.99597 2.86101e-07 0)
(3.99598 -4.15201e-07 0)
(3.99597 5.8047e-07 0)
(3.99598 -9.34306e-07 0)
(3.99598 1.40697e-06 0)
(3.99594 1.83973e-06 0)
(3.99595 -2.19336e-06 0)
(5.36782 9.37447e-06 0)
(5.36774 5.40022e-06 0)
(5.36772 -5.77324e-06 0)
(5.36778 -2.09911e-06 0)
(5.36778 -6.44654e-07 0)
(5.36778 -2.54381e-07 0)
(5.36778 4.21507e-09 0)
(5.36778 -3.12559e-09 0)
(5.36778 2.73078e-08 0)
(5.36778 3.45708e-08 0)
(5.36778 -1.33504e-07 0)
(5.36778 2.08726e-07 0)
(5.36779 -2.50097e-07 0)
(5.36778 3.61744e-07 0)
(5.36779 -5.41355e-07 0)
(5.36777 8.39131e-07 0)
(5.36779 -1.53351e-06 0)
(5.36779 2.39582e-06 0)
(5.36775 2.99464e-06 0)
(5.36776 -3.19786e-06 0)
(6.61434 1.23253e-05 0)
(6.61428 7.82128e-06 0)
(6.61425 -7.15282e-06 0)
(6.6143 -3.02149e-06 0)
(6.61429 -8.13606e-07 0)
(6.6143 -3.25003e-07 0)
(6.6143 2.00758e-08 0)
(6.6143 1.16658e-08 0)
(6.6143 2.93179e-08 0)
(6.6143 4.28454e-08 0)
(6.6143 -1.4742e-07 0)
(6.6143 2.40494e-07 0)
(6.6143 -2.8129e-07 0)
(6.61429 4.01286e-07 0)
(6.61431 -6.21099e-07 0)
(6.61428 1.05769e-06 0)
(6.61431 -2.12778e-06 0)
(6.6143 3.38589e-06 0)
(6.61427 4.18619e-06 0)
(6.61427 -4.00147e-06 0)
(7.73589 1.44894e-05 0)
(7.73587 1.0003e-05 0)
(7.73581 -7.77186e-06 0)
(7.73586 -3.69434e-06 0)
(7.73585 -9.05026e-07 0)
(7.73585 -3.52084e-07 0)
(7.73585 4.23536e-08 0)
(7.73585 3.57264e-08 0)
(7.73585 3.26216e-08 0)
(7.73585 5.19229e-08 0)
(7.73585 -1.54607e-07 0)
(7.73585 2.57775e-07 0)
(7.73585 -2.89845e-07 0)
(7.73584 4.09096e-07 0)
(7.73586 -6.59603e-07 0)
(7.73583 1.22859e-06 0)
(7.73586 -2.65273e-06 0)
(7.73585 4.22564e-06 0)
(7.73583 5.31811e-06 0)
(7.73582 -4.49493e-06 0)
(8.73276 1.56352e-05 0)
(8.73278 1.1659e-05 0)
(8.73271 -7.58957e-06 0)
(8.73274 -3.99814e-06 0)
(8.73273 -8.88202e-07 0)
(8.73273 -3.25718e-07 0)
(8.73273 7.35856e-08 0)
(8.73273 6.74875e-08 0)
(8.73273 3.65689e-08 0)
(8.73273 6.10318e-08 0)
(8.73273 -1.54918e-07 0)
(8.73273 2.62036e-07 0)
(8.73273 -2.7914e-07 0)
(8.73272 3.88485e-07 0)
(8.73274 -6.57612e-07 0)
(8.73271 1.33811e-06 0)
(8.73275 -3.05186e-06 0)
(8.73271 4.8429e-06 0)
(8.73272 6.29105e-06 0)
(8.7327 -4.64292e-06 0)
(9.60519 1.5641e-05 0)
(9.60526 1.25698e-05 0)
(9.60517 -6.66723e-06 0)
(9.60519 -3.8763e-06 0)
(9.60517 -7.40983e-07 0)
(9.60517 -2.41663e-07 0)
(9.60517 1.14755e-07 0)
(9.60517 1.0455e-07 0)
(9.60517 4.11181e-08 0)
(9.60517 6.9418e-08 0)
(9.60517 -1.48813e-07 0)
(9.60517 2.53872e-07 0)
(9.60517 -2.51078e-07 0)
(9.60516 3.42115e-07 0)
(9.60518 -6.1541e-07 0)
(9.60515 1.37264e-06 0)
(9.60519 -3.28249e-06 0)
(9.60515 5.196e-06 0)
(9.60518 7.00948e-06 0)
(9.60514 -4.44655e-06 0)
(10.3534 1.45152e-05 0)
(10.3535 1.26088e-05 0)
(10.3534 -5.15824e-06 0)
(10.3534 -3.34234e-06 0)
(10.3534 -4.6146e-07 0)
(10.3534 -1.036e-07 0)
(10.3534 1.64841e-07 0)
(10.3534 1.43884e-07 0)
(10.3534 4.57698e-08 0)
(10.3534 7.60182e-08 0)
(10.3534 -1.36584e-07 0)
(10.3534 2.34026e-07 0)
(10.3534 -2.07899e-07 0)
(10.3534 2.7307e-07 0)
(10.3534 -5.3445e-07 0)
(10.3533 1.32366e-06 0)
(10.3534 -3.32103e-06 0)
(10.3533 5.27726e-06 0)
(10.3534 7.39721e-06 0)
(10.3533 -3.94661e-06 0)
(10.9774 1.23919e-05 0)
(10.9776 1.17643e-05 0)
(10.9775 -3.27315e-06 0)
(10.9775 -2.47355e-06 0)
(10.9774 -7.23783e-08 0)
(10.9774 7.55781e-08 0)
(10.9774 2.19988e-07 0)
(10.9774 1.81827e-07 0)
(10.9774 4.99094e-08 0)
(10.9774 7.97083e-08 0)
(10.9774 -1.18802e-07 0)
(10.9774 2.03569e-07 0)
(10.9774 -1.52251e-07 0)
(10.9774 1.85488e-07 0)
(10.9774 -4.18902e-07 0)
(10.9774 1.19111e-06 0)
(10.9775 -3.16576e-06 0)
(10.9774 5.10515e-06 0)
(10.9775 7.40949e-06 0)
(10.9774 -3.21282e-06 0)
(11.4774 9.5165e-06 0)
(11.4776 1.01433e-05 0)
(11.4775 -1.24729e-06 0)
(11.4775 -1.39725e-06 0)
(11.4774 3.79808e-07 0)
(11.4774 2.74043e-07 0)
(11.4774 2.73539e-07 0)
(11.4774 2.14253e-07 0)
(11.4774 5.27817e-08 0)
(11.4774 7.94842e-08 0)
(11.4774 -9.62865e-08 0)
(11.4774 1.64055e-07 0)
(11.4774 -8.74212e-08 0)
(11.4774 8.48528e-08 0)
(11.4775 -2.76389e-07 0)
(11.4774 9.84838e-07 0)
(11.4775 -2.83623e-06 0)
(11.4774 4.71695e-06 0)
(11.4775 7.03964e-06 0)
(11.4774 -2.3327e-06 0)
(11.8533 6.21901e-06 0)
(11.8535 7.9597e-06 0)
(11.8534 6.89369e-07 0)
(11.8534 -2.70439e-07 0)
(11.8534 8.31529e-07 0)
(11.8534 4.63481e-07 0)
(11.8534 3.16886e-07 0)
(11.8534 2.36947e-07 0)
(11.8534 5.36287e-08 0)
(11.8534 7.46595e-08 0)
(11.8534 -7.01764e-08 0)
(11.8534 1.1767e-07 0)
(11.8534 -1.745e-08 0)
(11.8534 -2.18478e-08 0)
(11.8534 -1.18263e-07 0)
(11.8534 7.24592e-07 0)
(11.8534 -2.3705e-06 0)
(11.8533 4.16112e-06 0)
(11.8534 6.32082e-06 0)
(11.8534 -1.40038e-06 0)
(12.1051 2.87823e-06 0)
(12.1053 5.50582e-06 0)
(12.1052 2.33503e-06 0)
(12.1052 7.43804e-07 0)
(12.1052 1.21298e-06 0)
(12.1052 6.13595e-07 0)
(12.1052 3.41162e-07 0)
(12.1052 2.46211e-07 0)
(12.1052 5.18646e-08 0)
(12.1052 6.5041e-08 0)
(12.1052 -4.19809e-08 0)
(12.1052 6.73371e-08 0)
(12.1052 5.28388e-08 0)
(12.1052 -1.26223e-07 0)
(12.1052 4.09001e-08 0)
(12.1052 4.38266e-07 0)
(12.1052 -1.8205e-06 0)
(12.1052 3.49136e-06 0)
(12.1053 5.3231e-06 0)
(12.1052 -5.07293e-07 0)
(12.2327 -1.21361e-07 0)
(12.2328 3.10992e-06 0)
(12.2328 3.53204e-06 0)
(12.2328 1.50077e-06 0)
(12.2328 1.46148e-06 0)
(12.2328 6.98018e-07 0)
(12.2328 3.39458e-07 0)
(12.2328 2.3961e-07 0)
(12.2328 4.72588e-08 0)
(12.2328 5.10755e-08 0)
(12.2328 -1.35992e-08 0)
(12.2328 1.67453e-08 0)
(12.2328 1.17903e-07 0)
(12.2328 -2.18904e-07 0)
(12.2328 1.84633e-07 0)
(12.2328 1.58536e-07 0)
(12.2328 -1.24621e-06 0)
(12.2327 2.76281e-06 0)
(12.2328 4.14651e-06 0)
(12.2328 2.6531e-07 0)
(12.2358 -2.43528e-06 0)
(12.2359 1.08435e-06 0)
(12.2359 4.17465e-06 0)
(12.2359 1.89666e-06 0)
(12.2359 1.53468e-06 0)
(12.2359 7.00304e-07 0)
(12.2359 3.0901e-07 0)
(12.2359 2.16705e-07 0)
(12.2359 4.00749e-08 0)
(12.2359 3.38968e-08 0)
(12.2359 1.26066e-08 0)
(12.2359 -2.96527e-08 0)
(12.2359 1.718e-07 0)
(12.2359 -2.90337e-07 0)
(12.2359 2.96459e-07 0)
(12.2359 -8.14671e-08 0)
(12.2359 -7.08928e-07 0)
(12.2359 2.03026e-06 0)
(12.236 2.9107e-06 0)
(12.2359 8.51506e-07 0)
(12.1143 -3.80676e-06 0)
(12.1144 -3.27227e-07 0)
(12.1143 4.21718e-06 0)
(12.1143 1.88894e-06 0)
(12.1143 1.42058e-06 0)
(12.1143 6.18637e-07 0)
(12.1143 2.52712e-07 0)
(12.1143 1.79375e-07 0)
(12.1143 3.10582e-08 0)
(12.1144 1.53838e-08 0)
(12.1143 3.40251e-08 0)
(12.1143 -6.68697e-08 0)
(12.1144 2.08092e-07 0)
(12.1143 -3.31226e-07 0)
(12.1144 3.62027e-07 0)
(12.1143 -2.53126e-07 0)
(12.1144 -2.64275e-07 0)
(12.1143 1.34723e-06 0)
(12.1144 1.74371e-06 0)
(12.1144 1.20471e-06 0)
(11.8678 -4.09345e-06 0)
(11.8678 -1.00379e-06 0)
(11.8678 3.65995e-06 0)
(11.8678 1.50874e-06 0)
(11.8678 1.14062e-06 0)
(11.8678 4.67103e-07 0)
(11.8678 1.79035e-07 0)
(11.8678 1.31913e-07 0)
(11.8678 2.15839e-08 0)
(11.8678 -2.24177e-09 0)
(11.8678 4.71396e-08 0)
(11.8678 -8.86598e-08 0)
(11.8678 2.20231e-07 0)
(11.8678 -3.33175e-07 0)
(11.8678 3.68808e-07 0)
(11.8678 -3.3388e-07 0)
(11.8679 4.42729e-08 0)
(11.8678 7.67948e-07 0)
(11.8679 7.69275e-07 0)
(11.8678 1.29239e-06 0)
(11.496 -3.3829e-06 0)
(11.496 -9.89845e-07 0)
(11.496 2.65904e-06 0)
(11.496 9.09883e-07 0)
(11.496 7.5568e-07 0)
(11.496 2.82185e-07 0)
(11.496 1.02946e-07 0)
(11.496 7.89393e-08 0)
(11.496 1.16632e-08 0)
(11.496 -1.35187e-08 0)
(11.496 4.9516e-08 0)
(11.496 -8.91815e-08 0)
(11.496 1.95404e-07 0)
(11.496 -2.83177e-07 0)
(11.496 3.12118e-07 0)
(11.496 -3.1712e-07 0)
(11.496 1.91865e-07 0)
(11.496 3.33967e-07 0)
(11.496 1.10631e-07 0)
(11.496 1.11904e-06 0)
(10.9985 -1.9049e-06 0)
(10.9985 -5.8491e-07 0)
(10.9985 1.29896e-06 0)
(10.9985 2.87975e-07 0)
(10.9985 3.50438e-07 0)
(10.9985 1.04297e-07 0)
(10.9985 3.67976e-08 0)
(10.9985 3.65668e-08 0)
(10.9985 6.95984e-09 0)
(10.9985 -2.02802e-08 0)
(10.9985 3.10441e-08 0)
(10.9985 -5.83555e-08 0)
(10.9985 1.39014e-07 0)
(10.9985 -1.89828e-07 0)
(10.9985 1.85158e-07 0)
(10.9985 -1.9767e-07 0)
(10.9985 1.89279e-07 0)
(10.9985 9.92012e-08 0)
(10.9985 -1.78597e-07 0)
(10.9985 6.79701e-07 0)
(10.375 -6.05663e-07 0)
(10.375 -1.30353e-07 0)
(10.375 4.28122e-07 0)
(10.375 3.99926e-08 0)
(10.375 8.84743e-08 0)
(10.375 2.14319e-08 0)
(10.375 7.17073e-09 0)
(10.375 5.51904e-09 0)
(10.375 5.96114e-10 0)
(10.375 -6.04906e-09 0)
(10.375 1.28341e-08 0)
(10.375 -2.23449e-08 0)
(10.375 4.45706e-08 0)
(10.375 -5.93783e-08 0)
(10.375 6.12951e-08 0)
(10.375 -6.74756e-08 0)
(10.375 7.16412e-08 0)
(10.375 -8.24055e-09 0)
(10.375 -9.13567e-08 0)
(10.375 2.43886e-07 0)
)
;

boundaryField
{
    top
    {
        type            fixedValue;
        value           uniform (10 0 0);
    }
    bottom
    {
        type            fixedValue;
        value           uniform (0 0 0);
    }
    inlet
    {
        type            zeroGradient;
    }
    outlet
    {
        type            zeroGradient;
    }
    frontAndBack
    {
        type            empty;
    }
}


// ************************************************************************* //
