/*--------------------------------*- C++ -*----------------------------------*\
| =========                 |                                                 |
| \\      /  F ield         | OpenFOAM: The Open Source CFD Toolbox           |
|  \\    /   O peration     | Version:  v1706                                 |
|   \\  /    A nd           | Web:      www.OpenFOAM.com                      |
|    \\/     M anipulation  |                                                 |
\*---------------------------------------------------------------------------*/
FoamFile
{
    version     2.0;
    format      ascii;
    class       surfaceScalarField;
    location    "1.3";
    object      phi;
}
// * * * * * * * * * * * * * * * * * * * * * * * * * * * * * * * * * * * * * //

dimensions      [0 3 -1 0 0 0 0];
oriented        oriented;


internalField   nonuniform List<scalar> 
760
(
4.4161e-05
-3.81869e-11
4.4161e-05
-3.18106e-11
4.4161e-05
-1.1072e-11
4.4161e-05
-7.17381e-12
4.4161e-05
-1.62056e-12
4.4161e-05
-3.10876e-12
4.4161e-05
9.35581e-13
4.4161e-05
-1.59659e-12
4.4161e-05
9.12954e-13
4.4161e-05
-2.41901e-13
4.4161e-05
-8.18961e-14
4.4161e-05
1.13465e-12
4.4161e-05
-1.15111e-12
4.4161e-05
1.99164e-12
4.4161e-05
-1.53518e-12
4.4161e-05
1.76622e-12
4.4161e-05
-1.28566e-12
4.4161e-05
1.18858e-12
4.4161e-05
-7.72981e-12
-2.69383e-11
0.00012615
-1.10392e-10
0.00012615
-1.08206e-10
0.00012615
-4.16923e-11
0.00012615
-2.25852e-11
0.00012615
-8.46365e-12
0.00012615
-7.3898e-12
0.00012615
1.17053e-12
0.00012615
-2.59229e-12
0.00012615
3.0873e-12
0.00012615
6.46046e-13
0.00012615
2.29495e-12
0.00012615
4.05533e-12
0.00012615
7.61287e-13
0.00012615
6.94971e-12
0.00012615
-8.37613e-14
0.00012615
8.06765e-12
0.00012615
-9.16862e-13
0.00012615
9.42953e-12
0.00012615
-2.72437e-11
-7.72518e-11
0.000201807
-1.91298e-10
0.000201807
-2.07739e-10
0.000201807
-8.60335e-11
0.000201807
-4.42441e-11
0.000201807
-1.94621e-11
0.000201807
-1.30881e-11
0.000201807
-4.62526e-14
0.000201807
-3.63152e-12
0.000201807
4.84436e-12
0.000201807
1.68791e-12
0.000201807
4.99715e-12
0.000201807
7.12029e-12
0.000201807
3.50257e-12
0.000201807
1.22248e-11
0.000201807
2.20349e-12
0.000201807
1.52781e-11
0.000201807
-9.66536e-13
0.000201807
2.07085e-11
0.000201807
-5.40028e-11
-1.34172e-10
0.000271131
-2.66382e-10
0.000271131
-3.0978e-10
0.000271131
-1.35938e-10
0.000271131
-6.93831e-11
0.000271131
-3.24893e-11
0.000271131
-2.00403e-11
0.000271131
-2.2456e-12
0.000271131
-5.06816e-12
0.000271131
5.87024e-12
0.000271131
2.54034e-12
0.000271131
7.15256e-12
0.000271131
9.97464e-12
0.000271131
5.91829e-12
0.000271131
1.71484e-11
0.000271131
4.2945e-12
0.000271131
2.21048e-11
0.000271131
-1.78016e-12
0.000271131
3.24229e-11
0.000271131
-8.13157e-11
-1.87896e-10
0.000334123
-3.24555e-10
0.000334123
-3.9708e-10
0.000334123
-1.82877e-10
0.000334123
-9.41071e-11
0.000334123
-4.54236e-11
0.000334123
-2.71248e-11
0.000334123
-4.90854e-12
0.000334123
-6.54035e-12
0.000334123
6.2588e-12
0.000334123
3.31518e-12
0.000334123
8.71197e-12
0.000334123
1.25618e-11
0.000334123
7.94924e-12
0.000334123
2.14586e-11
0.000334123
6.25569e-12
0.000334123
2.80103e-11
0.000334123
-2.74254e-12
0.000334123
4.2895e-11
0.000334123
-1.04154e-10
-2.30835e-10
0.000390783
-3.59116e-10
0.000390783
-4.57469e-10
0.000390783
-2.19175e-10
0.000390783
-1.1446e-10
0.000390783
-5.61796e-11
0.000390783
-3.31414e-11
0.000390783
-7.46487e-12
0.000390783
-7.65734e-12
0.000390783
6.19755e-12
0.000390783
4.14584e-12
0.000390783
9.75666e-12
0.000390783
1.48675e-11
0.000390783
9.6837e-12
0.000390783
2.49999e-11
0.000390783
8.28421e-12
0.000390783
3.2645e-11
0.000390783
-3.11774e-12
0.000390783
5.08553e-11
0.000390783
-1.19638e-10
-2.57905e-10
0.000441111
-3.67192e-10
0.000441111
-4.84004e-10
0.000441111
-2.39165e-10
0.000441111
-1.27106e-10
0.000441111
-6.29695e-11
0.000441111
-3.70537e-11
0.000441111
-9.39003e-12
0.000441111
-8.12079e-12
0.000441111
5.866e-12
0.000441111
5.09549e-12
0.000441111
1.03551e-11
0.000441111
1.68242e-11
0.000441111
1.11593e-11
0.000441111
2.76001e-11
0.000441111
1.04648e-11
0.000441111
3.56847e-11
0.000441111
-2.39876e-12
0.000441111
5.54213e-11
0.000441111
-1.26695e-10
-2.66604e-10
0.000485106
-3.49479e-10
0.000485106
-4.75085e-10
0.000485106
-2.39929e-10
0.000485106
-1.29907e-10
0.000485106
-6.46015e-11
0.000485106
-3.81415e-11
0.000485106
-1.02951e-11
0.000485106
-7.75089e-12
0.000485106
5.41238e-12
0.000485106
6.16377e-12
0.000485106
1.05656e-11
0.000485106
1.83351e-11
0.000485106
1.23776e-11
0.000485106
2.9109e-11
0.000485106
1.27792e-11
0.000485106
3.69064e-11
0.000485106
-3.73314e-13
0.000485106
5.62095e-11
0.000485106
-1.25692e-10
-2.56937e-10
0.00052277
-3.09337e-10
0.00052277
-4.33665e-10
0.00052277
-2.21611e-10
0.00052277
-1.22323e-10
0.00052277
-6.07049e-11
0.00052277
-3.61379e-11
0.00052277
-9.99509e-12
0.00052277
-6.50979e-12
0.00052277
4.93658e-12
0.00052277
7.30085e-12
0.00052277
1.04355e-11
0.00052277
1.93068e-11
0.00052277
1.33137e-11
0.00052277
2.94439e-11
0.00052277
1.512e-11
0.00052277
3.62563e-11
0.00052277
2.87239e-12
0.00052277
5.3371e-11
0.00052277
-1.178e-10
-2.30919e-10
0.000554102
-2.52137e-10
0.000554102
-3.66373e-10
0.000554102
-1.87207e-10
0.000554102
-1.05516e-10
0.000554102
-5.18347e-11
0.000554102
-3.12942e-11
0.000554102
-8.55442e-12
0.000554102
-4.51392e-12
0.000554102
4.47557e-12
0.000554102
8.41277e-12
0.000554102
9.99648e-12
0.000554102
1.96638e-11
0.000554102
1.39157e-11
0.000554102
2.86043e-11
0.000554102
1.73012e-11
0.000554102
3.3868e-11
0.000554102
6.9766e-12
0.000554102
4.74877e-11
0.000554102
-1.04623e-10
-1.92124e-10
0.000579102
-1.8448e-10
0.000579102
-2.82319e-10
0.000579102
-1.41962e-10
0.000579102
-8.21359e-11
0.000579102
-3.93921e-11
0.000579102
-2.43491e-11
0.000579102
-6.27823e-12
0.000579102
-2.02032e-12
0.000579102
4.00562e-12
0.000579102
9.37406e-12
0.000579102
9.26631e-12
0.000579102
1.93607e-11
0.000579102
1.41177e-11
0.000579102
2.66785e-11
0.000579102
1.9082e-11
0.000579102
3.00516e-11
0.000579102
1.13727e-11
0.000579102
3.94489e-11
0.000579102
-8.78919e-11
-1.4513e-10
0.00059777
-1.1352e-10
0.00059777
-1.91893e-10
0.00059777
-9.24717e-11
0.00059777
-5.58109e-11
0.00059777
-2.5371e-11
0.00059777
-1.63916e-11
0.00059777
-3.64784e-12
0.00059777
6.14823e-13
0.00059777
3.461e-12
0.00059777
1.00457e-11
0.00059777
8.25717e-12
0.00059777
1.83892e-11
0.00059777
1.38538e-11
0.00059777
2.38349e-11
0.00059777
2.02048e-11
0.00059777
2.52507e-11
0.00059777
1.53943e-11
0.00059777
3.03102e-11
0.00059777
-6.93187e-11
-9.50343e-11
0.000610107
-4.64596e-11
0.000610106
-1.05616e-10
0.000610106
-4.55939e-11
0.000610106
-3.0474e-11
0.000610106
-1.19624e-11
0.000610106
-8.64589e-12
0.000610106
-1.20843e-12
0.000610106
3.0014e-12
0.000610106
2.76647e-12
0.000610106
1.02982e-11
0.000610106
6.98928e-12
0.000610106
1.67833e-11
0.000610106
1.30776e-11
0.000610106
2.03043e-11
0.000610106
2.04412e-11
0.000610106
1.99762e-11
0.000610106
1.83833e-11
0.000610106
2.11557e-11
0.000610106
-5.05479e-11
-4.69796e-11
0.000616111
1.01829e-11
0.000616111
-3.28734e-11
0.000616111
-7.39158e-12
0.000616111
-9.59166e-12
0.000616111
-1.11574e-12
0.000616111
-2.21568e-12
0.000616111
5.63246e-13
0.000616111
4.79082e-12
0.000616111
1.87772e-12
0.000616111
1.00356e-11
0.000616111
5.50683e-12
0.000616111
1.46204e-11
0.000616111
1.17815e-11
0.000616111
1.63549e-11
0.000616111
1.96372e-11
0.000616111
1.47331e-11
0.000616111
1.98125e-11
0.000616111
1.29899e-11
0.000616111
-3.31066e-11
-5.70111e-12
0.000615783
5.08254e-11
0.000615783
1.90306e-11
0.000615783
1.79667e-11
0.000615783
4.48378e-12
0.000615783
5.87055e-12
0.000615783
2.14692e-12
0.000615783
1.38322e-12
0.000615783
5.74905e-12
0.000615783
8.18124e-13
0.000615783
9.21897e-12
0.000615783
3.89607e-12
0.000615783
1.20237e-11
0.000615783
1.00164e-11
0.000615783
1.22708e-11
0.000615783
1.77542e-11
0.000615783
9.94908e-12
0.000615783
1.93722e-11
0.000615783
6.57798e-12
0.000615783
-1.84515e-11
2.48462e-11
0.000609123
7.19772e-11
0.000609123
4.63432e-11
0.000609123
2.88927e-11
0.000609123
1.10188e-11
0.000609123
8.60412e-12
0.000609123
4.19192e-12
0.000609123
1.23807e-12
0.000609123
5.79222e-12
0.000609123
-3.00329e-13
0.000609123
7.86814e-12
0.000609123
2.28393e-12
0.000609123
9.14608e-12
0.000609123
7.88275e-12
0.000609123
8.31576e-12
0.000609123
1.48649e-11
0.000609123
5.90665e-12
0.000609123
1.70274e-11
0.000609123
2.34526e-12
0.000609123
-7.73211e-12
4.20057e-11
0.000596131
7.21473e-11
0.000596131
4.93678e-11
0.000596131
2.70268e-11
0.000596131
1.09774e-11
0.000596131
7.67777e-12
0.000596131
4.20445e-12
0.000596131
3.83361e-13
0.000596131
4.99938e-12
0.000596131
-1.30195e-12
0.000596131
6.05518e-12
0.000596131
8.10873e-13
0.000596131
6.14426e-12
0.000596131
5.50181e-12
0.000596131
4.68568e-12
0.000596131
1.11254e-11
0.000596131
2.6681e-12
0.000596131
1.29887e-11
0.000596131
1.14217e-13
0.000596131
-1.83559e-12
4.46662e-11
0.000576807
5.39177e-11
0.000576807
3.43135e-11
0.000576807
1.6964e-11
0.000576807
6.88461e-12
0.000576807
4.57305e-12
0.000576807
2.94033e-12
0.000576807
-6.10797e-13
0.000576807
3.619e-12
0.000576807
-1.84405e-12
0.000576807
3.97674e-12
0.000576807
-2.5154e-13
0.000576807
3.31677e-12
0.000576807
3.14618e-12
0.000576807
1.71597e-12
0.000576807
6.93263e-12
0.000576807
3.58287e-13
0.000576807
7.94718e-12
0.000576807
-5.95076e-13
0.000576807
-2.34822e-13
3.42154e-11
0.00055115
2.30306e-11
0.00055115
1.24743e-11
0.00055115
5.81455e-12
0.00055115
2.02013e-12
0.00055115
1.27237e-12
0.00055115
1.35137e-12
0.00055115
-1.14952e-12
0.00055115
1.9221e-12
0.00055115
-1.7179e-12
0.00055115
1.76326e-12
0.00055115
-8.27006e-13
0.00055115
8.09771e-13
0.00055115
8.74259e-13
0.00055115
-5.27966e-13
0.00055115
2.49235e-12
0.00055115
-1.32945e-12
0.00055115
2.47914e-12
0.00055115
-1.28535e-12
0.00055115
-1.57948e-12
1.4174e-11
0.000519161
0.000519161
0.000519161
0.000519161
0.000519161
0.000519161
0.000519161
0.000519161
0.000519161
0.000519161
0.000519161
0.000519161
0.000519161
0.000519161
0.000519161
0.000519161
0.000519161
0.000519161
0.000519161
)
;

boundaryField
{
    top
    {
        type            calculated;
        value           uniform 0;
    }
    bottom
    {
        type            calculated;
        value           uniform 0;
    }
    inlet
    {
        type            calculated;
        value           nonuniform List<scalar> 
20
(
-4.41609e-05
-0.00012615
-0.000201807
-0.000271131
-0.000334123
-0.000390783
-0.000441111
-0.000485106
-0.00052277
-0.000554102
-0.000579102
-0.00059777
-0.000610107
-0.000616111
-0.000615783
-0.000609123
-0.000596131
-0.000576807
-0.00055115
-0.000519161
)
;
    }
    outlet
    {
        type            calculated;
        value           nonuniform List<scalar> 
20
(
4.4161e-05
0.00012615
0.000201807
0.000271131
0.000334123
0.000390783
0.000441111
0.000485106
0.00052277
0.000554102
0.000579102
0.00059777
0.000610106
0.000616111
0.000615783
0.000609123
0.000596131
0.000576807
0.00055115
0.000519161
)
;
    }
    frontAndBack
    {
        type            empty;
        value           nonuniform 0();
    }
}


// ************************************************************************* //
