/*--------------------------------*- C++ -*----------------------------------*\
| =========                 |                                                 |
| \\      /  F ield         | OpenFOAM: The Open Source CFD Toolbox           |
|  \\    /   O peration     | Version:  v1706                                 |
|   \\  /    A nd           | Web:      www.OpenFOAM.com                      |
|    \\/     M anipulation  |                                                 |
\*---------------------------------------------------------------------------*/
FoamFile
{
    version     2.0;
    format      ascii;
    class       volVectorField;
    location    "1.3";
    object      U;
}
// * * * * * * * * * * * * * * * * * * * * * * * * * * * * * * * * * * * * * //

dimensions      [0 1 -1 0 0 0 0];


internalField   nonuniform List<vector> 
400
(
(0.883219 -1.74545e-08 0)
(0.883219 -1.29766e-08 0)
(0.88322 -3.94183e-09 0)
(0.88322 -2.16373e-09 0)
(0.88322 -7.40548e-10 0)
(0.88322 -5.81948e-10 0)
(0.88322 4.20559e-10 0)
(0.88322 -1.90799e-10 0)
(0.88322 7.88318e-10 0)
(0.88322 2.18095e-10 0)
(0.88322 7.75786e-10 0)
(0.88322 7.55561e-10 0)
(0.88322 5.51595e-10 0)
(0.88322 1.3565e-09 0)
(0.88322 4.21744e-10 0)
(0.88322 1.75013e-09 0)
(0.88322 5.14651e-10 0)
(0.88322 1.64496e-09 0)
(0.88322 -2.36827e-09 0)
(0.883221 -1.20436e-08 0)
(2.523 -7.06402e-08 0)
(2.523 -6.32671e-08 0)
(2.52301 -2.25509e-08 0)
(2.52301 -1.35854e-08 0)
(2.52301 -3.7706e-09 0)
(2.52301 -5.25648e-09 0)
(2.52301 1.38157e-09 0)
(2.52301 -2.3418e-09 0)
(2.52301 1.779e-09 0)
(2.52301 1.67269e-11 0)
(2.52301 4.78182e-10 0)
(2.52301 2.35871e-09 0)
(2.52301 -1.09544e-09 0)
(2.52301 3.96252e-09 0)
(2.52301 -1.68564e-09 0)
(2.52301 3.91711e-09 0)
(2.52301 -1.52426e-09 0)
(2.52301 3.47213e-09 0)
(2.52301 -1.65055e-08 0)
(2.52301 -4.99578e-08 0)
(4.03614 -1.49458e-07 0)
(4.03614 -1.53895e-07 0)
(4.03614 -6.09009e-08 0)
(4.03614 -3.14605e-08 0)
(4.03614 -1.32875e-08 0)
(4.03614 -9.2891e-09 0)
(4.03614 8.05136e-10 0)
(4.03614 -2.59329e-09 0)
(4.03614 4.34963e-09 0)
(4.03614 1.48443e-09 0)
(4.03614 4.28423e-09 0)
(4.03614 5.85917e-09 0)
(4.03614 2.97378e-09 0)
(4.03614 9.98592e-09 0)
(4.03614 1.99377e-09 0)
(4.03614 1.23897e-08 0)
(4.03614 1.65555e-10 0)
(4.03614 1.56391e-08 0)
(4.03614 -3.9004e-08 0)
(4.03614 -1.04065e-07 0)
(5.42262 -2.31327e-07 0)
(5.42262 -2.59697e-07 0)
(5.42262 -1.10293e-07 0)
(5.42262 -5.62943e-08 0)
(5.42263 -2.56913e-08 0)
(5.42263 -1.64097e-08 0)
(5.42263 -1.0364e-09 0)
(5.42263 -4.38015e-09 0)
(5.42263 5.39788e-09 0)
(5.42263 2.00414e-09 0)
(5.42263 6.02241e-09 0)
(5.42263 8.38935e-09 0)
(5.42263 4.54718e-09 0)
(5.42263 1.45084e-08 0)
(5.42263 2.97194e-09 0)
(5.42263 1.84536e-08 0)
(5.42263 -1.63379e-09 0)
(5.42263 2.61394e-08 0)
(5.42263 -6.84572e-08 0)
(5.42263 -1.6282e-07 0)
(6.68246 -3.00496e-07 0)
(6.68246 -3.58557e-07 0)
(6.68246 -1.61068e-07 0)
(6.68246 -8.22751e-08 0)
(6.68246 -3.92496e-08 0)
(6.68246 -2.36822e-08 0)
(6.68247 -3.5706e-09 0)
(6.68246 -5.87008e-09 0)
(6.68247 6.15291e-09 0)
(6.68246 2.86349e-09 0)
(6.68247 8.01318e-09 0)
(6.68246 1.12021e-08 0)
(6.68247 6.93577e-09 0)
(6.68246 1.93336e-08 0)
(6.68247 5.15392e-09 0)
(6.68246 2.51626e-08 0)
(6.68247 -2.49362e-09 0)
(6.68246 3.79573e-08 0)
(6.68246 -9.42766e-08 0)
(6.68247 -2.12726e-07 0)
(7.81566 -3.47982e-07 0)
(7.81566 -4.34889e-07 0)
(7.81566 -2.04551e-07 0)
(7.81566 -1.05827e-07 0)
(7.81566 -5.16125e-08 0)
(7.81566 -3.05465e-08 0)
(7.81566 -6.31411e-09 0)
(7.81566 -7.25925e-09 0)
(7.81566 6.27717e-09 0)
(7.81566 3.6502e-09 0)
(7.81566 9.30176e-09 0)
(7.81566 1.36911e-08 0)
(7.81566 8.80886e-09 0)
(7.81566 2.33315e-08 0)
(7.81566 7.12605e-09 0)
(7.81566 3.05558e-08 0)
(7.81566 -3.30072e-09 0)
(7.81566 4.75266e-08 0)
(7.81566 -1.13776e-07 0)
(7.81566 -2.48603e-07 0)
(8.82221 -3.6948e-07 0)
(8.82221 -4.79424e-07 0)
(8.82221 -2.33906e-07 0)
(8.82221 -1.23092e-07 0)
(8.82221 -6.0805e-08 0)
(8.82221 -3.57607e-08 0)
(8.82221 -8.68472e-09 0)
(8.82221 -8.12462e-09 0)
(8.82221 6.03255e-09 0)
(8.82221 4.52053e-09 0)
(8.82221 1.00987e-08 0)
(8.82221 1.58412e-08 0)
(8.82221 1.03962e-08 0)
(8.82221 2.64346e-08 0)
(8.82221 9.20452e-09 0)
(8.82221 3.44583e-08 0)
(8.82221 -3.2435e-09 0)
(8.82221 5.39754e-08 0)
(8.82221 -1.25017e-07 0)
(8.82221 -2.6675e-07 0)
(9.70213 -3.64107e-07 0)
(9.70213 -4.88057e-07 0)
(9.70213 -2.44704e-07 0)
(9.70213 -1.31215e-07 0)
(9.70213 -6.52376e-08 0)
(9.70213 -3.84132e-08 0)
(9.70213 -1.01755e-08 0)
(9.70213 -8.20958e-09 0)
(9.70213 5.60782e-09 0)
(9.70213 5.53474e-09 0)
(9.70213 1.04852e-08 0)
(9.70213 1.76047e-08 0)
(9.70213 1.17385e-08 0)
(9.70213 2.85259e-08 0)
(9.70213 1.14619e-08 0)
(9.70213 3.66266e-08 0)
(9.70213 -1.88814e-09 0)
(9.70213 5.67031e-08 0)
(9.70213 -1.2777e-07 0)
(9.70213 -2.65985e-07 0)
(10.4554 -3.34088e-07 0)
(10.4554 -4.61689e-07 0)
(10.4554 -2.35549e-07 0)
(10.4554 -1.28775e-07 0)
(10.4554 -6.40971e-08 0)
(10.4554 -3.79751e-08 0)
(10.4554 -1.04978e-08 0)
(10.4554 -7.40367e-09 0)
(10.4554 5.12224e-09 0)
(10.4554 6.65015e-09 0)
(10.4554 1.05083e-08 0)
(10.4554 1.88649e-08 0)
(10.4554 1.28148e-08 0)
(10.4554 2.94467e-08 0)
(10.4554 1.38153e-08 0)
(10.4554 3.6888e-08 0)
(10.4554 7.94835e-10 0)
(10.4554 5.55828e-08 0)
(10.4554 -1.22974e-07 0)
(10.4554 -2.47455e-07 0)
(11.082 -2.83956e-07 0)
(11.082 -4.05363e-07 0)
(11.082 -2.08114e-07 0)
(11.082 -1.16092e-07 0)
(11.082 -5.74622e-08 0)
(11.082 -3.443e-08 0)
(11.082 -9.58009e-09 0)
(11.082 -5.74292e-09 0)
(11.082 4.65037e-09 0)
(11.082 7.79896e-09 0)
(11.082 1.02121e-08 0)
(11.082 1.95434e-08 0)
(11.082 1.35912e-08 0)
(11.082 2.91726e-08 0)
(11.082 1.61228e-08 0)
(11.082 3.5313e-08 0)
(11.082 4.5849e-09 0)
(11.082 5.10147e-08 0)
(11.082 -1.12077e-07 0)
(11.082 -2.14065e-07 0)
(11.582 -2.19877e-07 0)
(11.582 -3.27255e-07 0)
(11.582 -1.66722e-07 0)
(11.582 -9.51688e-08 0)
(11.582 -4.63537e-08 0)
(11.582 -2.82972e-08 0)
(11.582 -7.6152e-09 0)
(11.582 -3.42045e-09 0)
(11.582 4.19756e-09 0)
(11.582 8.86863e-09 0)
(11.582 9.62178e-09 0)
(11.582 1.95788e-08 0)
(11.582 1.40065e-08 0)
(11.582 2.77644e-08 0)
(11.582 1.81657e-08 0)
(11.582 3.21263e-08 0)
(11.582 8.99797e-09 0)
(11.582 4.37677e-08 0)
(11.582 -9.67951e-08 0)
(11.582 -1.70016e-07 0)
(11.9554 -1.48862e-07 0)
(11.9554 -2.37409e-07 0)
(11.9554 -1.1756e-07 0)
(11.9554 -6.93041e-08 0)
(11.9554 -3.25572e-08 0)
(11.9554 -2.05383e-08 0)
(11.9554 -5.01963e-09 0)
(11.9554 -7.56941e-10 0)
(11.9554 3.71282e-09 0)
(11.9554 9.72174e-09 0)
(11.9554 8.74988e-09 0)
(11.9554 1.89434e-08 0)
(11.9554 1.39912e-08 0)
(11.9554 2.53445e-08 0)
(11.9554 1.96843e-08 0)
(11.9554 2.77004e-08 0)
(11.9554 1.3387e-08 0)
(11.9554 3.4892e-08 0)
(11.9554 -7.88508e-08 0)
(11.9554 -1.2026e-07 0)
(12.2021 -7.82374e-08 0)
(12.2021 -1.4658e-07 0)
(12.2021 -6.76403e-08 0)
(12.2021 -4.24758e-08 0)
(12.2021 -1.82789e-08 0)
(12.2021 -1.23715e-08 0)
(12.2021 -2.34054e-09 0)
(12.2021 1.85451e-09 0)
(12.2021 3.1155e-09 0)
(12.2021 1.02172e-08 0)
(12.2021 7.60815e-09 0)
(12.2021 1.76483e-08 0)
(12.2021 1.34836e-08 0)
(12.2021 2.2104e-08 0)
(12.2021 2.04212e-08 0)
(12.2021 2.25355e-08 0)
(12.2021 1.7058e-08 0)
(12.2021 2.54886e-08 0)
(12.2021 -5.99182e-08 0)
(12.2021 -7.00234e-08 0)
(12.3222 -1.49542e-08 0)
(12.3222 -6.49832e-08 0)
(12.3222 -2.37121e-08 0)
(12.3222 -1.85762e-08 0)
(12.3222 -5.70547e-09 0)
(12.3222 -5.03474e-09 0)
(12.3222 -1.24114e-10 0)
(12.3222 4.01722e-09 0)
(12.3222 2.33295e-09 0)
(12.3222 1.023e-08 0)
(12.3222 6.21799e-09 0)
(12.3222 1.57415e-08 0)
(12.3222 1.24403e-08 0)
(12.3222 1.82958e-08 0)
(12.3222 2.01604e-08 0)
(12.3222 1.71546e-08 0)
(12.3222 1.93781e-08 0)
(12.3222 1.65843e-08 0)
(12.3222 -4.15731e-08 0)
(12.3222 -2.43429e-08 0)
(12.3157 3.47778e-08 0)
(12.3157 -1.26844e-09 0)
(12.3157 8.87771e-09 0)
(12.3157 -6.68451e-10 0)
(12.3157 3.44773e-09 0)
(12.3157 5.06945e-10 0)
(12.3157 1.21802e-09 0)
(12.3157 5.44441e-09 0)
(12.3157 1.34896e-09 0)
(12.3157 9.70227e-09 0)
(12.3157 4.65675e-09 0)
(12.3157 1.33438e-08 0)
(12.3157 1.09098e-08 0)
(12.3157 1.42269e-08 0)
(12.3157 1.88383e-08 0)
(12.3157 1.2068e-08 0)
(12.3157 1.99483e-08 0)
(12.3157 9.14088e-09 0)
(12.3157 -2.52951e-08 0)
(12.3157 1.23534e-08 0)
(12.1825 6.62997e-08 0)
(12.1825 3.8756e-08 0)
(12.1825 2.7029e-08 0)
(12.1825 9.60927e-09 0)
(12.1825 8.28112e-09 0)
(12.1825 3.69563e-09 0)
(12.1825 1.52617e-09 0)
(12.1825 5.93207e-09 0)
(12.1825 2.22524e-10 0)
(12.1825 8.58416e-09 0)
(12.1825 3.00274e-09 0)
(12.1825 1.05579e-08 0)
(12.1825 8.91725e-09 0)
(12.1825 1.01396e-08 0)
(12.1825 1.6402e-08 0)
(12.1825 7.59714e-09 0)
(12.1825 1.85101e-08 0)
(12.1825 3.75129e-09 0)
(12.1825 -1.24588e-08 0)
(12.1825 3.66433e-08 0)
(11.9226 7.65831e-08 0)
(11.9226 5.28666e-08 0)
(11.9226 3.0671e-08 0)
(11.9226 1.23185e-08 0)
(11.9226 8.82362e-09 0)
(11.9226 4.56791e-09 0)
(11.9226 8.00025e-10 0)
(11.9226 5.48962e-09 0)
(11.9226 -1.03653e-09 0)
(11.9226 6.89558e-09 0)
(11.9226 1.26921e-09 0)
(11.9226 7.39904e-09 0)
(11.9226 6.45103e-09 0)
(11.9226 6.0389e-09 0)
(11.9226 1.2819e-08 0)
(11.9226 3.63958e-09 0)
(11.9226 1.49207e-08 0)
(11.9226 3.00863e-10 0)
(11.9226 -4.46896e-09 0)
(11.9226 4.62512e-08 0)
(11.5361 6.60693e-08 0)
(11.5361 4.4809e-08 0)
(11.5361 2.31399e-08 0)
(11.5361 9.6389e-09 0)
(11.5361 6.67989e-09 0)
(11.5361 3.76349e-09 0)
(11.5361 3.34168e-10 0)
(11.5361 4.44417e-09 0)
(11.5361 -1.15645e-09 0)
(11.5361 5.30692e-09 0)
(11.5361 6.95758e-10 0)
(11.5361 5.22831e-09 0)
(11.5361 4.81002e-09 0)
(11.5361 3.90854e-09 0)
(11.5361 9.69506e-09 0)
(11.5361 2.40052e-09 0)
(11.5361 1.14847e-08 0)
(11.5361 5.78845e-10 0)
(11.5361 6.65913e-10 0)
(11.5361 4.21178e-08 0)
(11.023 3.9611e-08 0)
(11.023 2.36891e-08 0)
(11.023 1.12993e-08 0)
(11.023 4.2059e-09 0)
(11.023 2.60595e-09 0)
(11.023 2.20739e-09 0)
(11.023 -1.47776e-09 0)
(11.023 2.8604e-09 0)
(11.023 -2.47194e-09 0)
(11.023 2.70737e-09 0)
(11.023 -1.16672e-09 0)
(11.023 1.45609e-09 0)
(11.023 1.51386e-09 0)
(11.023 -4.66096e-10 0)
(11.023 4.16205e-09 0)
(11.023 -1.74134e-09 0)
(11.023 4.40203e-09 0)
(11.023 -2.05069e-09 0)
(11.023 -1.49381e-09 0)
(11.023 2.48958e-08 0)
(10.3832 1.22976e-08 0)
(10.3832 6.52998e-09 0)
(10.3832 2.50813e-09 0)
(10.3832 1.05379e-09 0)
(10.3832 8.57234e-10 0)
(10.3832 5.04347e-10 0)
(10.3832 -5.3181e-12 0)
(10.3832 8.03358e-10 0)
(10.3832 -2.39331e-10 0)
(10.3832 9.97812e-10 0)
(10.3832 1.01261e-10 0)
(10.3832 9.35534e-10 0)
(10.3832 8.79648e-10 0)
(10.3832 6.54224e-10 0)
(10.3832 1.72712e-09 0)
(10.3832 5.00932e-10 0)
(10.3832 2.05329e-09 0)
(10.3832 5.23241e-10 0)
(10.3832 8.01011e-10 0)
(10.3832 8.20195e-09 0)
)
;

boundaryField
{
    top
    {
        type            fixedValue;
        value           uniform (10 0 0);
    }
    bottom
    {
        type            fixedValue;
        value           uniform (0 0 0);
    }
    inlet
    {
        type            zeroGradient;
    }
    outlet
    {
        type            zeroGradient;
    }
    frontAndBack
    {
        type            empty;
    }
}


// ************************************************************************* //
