/*--------------------------------*- C++ -*----------------------------------*\
| =========                 |                                                 |
| \\      /  F ield         | OpenFOAM: The Open Source CFD Toolbox           |
|  \\    /   O peration     | Version:  v1706                                 |
|   \\  /    A nd           | Web:      www.OpenFOAM.com                      |
|    \\/     M anipulation  |                                                 |
\*---------------------------------------------------------------------------*/
FoamFile
{
    version     2.0;
    format      ascii;
    class       surfaceScalarField;
    location    "2.5";
    object      phi;
}
// * * * * * * * * * * * * * * * * * * * * * * * * * * * * * * * * * * * * * //

dimensions      [0 3 -1 0 0 0 0];
oriented        oriented;


internalField   nonuniform List<scalar> 
760
(
4.4164e-05
-2.39272e-13
4.4164e-05
5.28025e-13
4.4164e-05
-2.41565e-12
4.4164e-05
2.75022e-12
4.4164e-05
-3.34982e-12
4.4164e-05
3.52616e-12
4.4164e-05
-3.87874e-12
4.4164e-05
3.83162e-12
4.4164e-05
-3.81848e-12
4.4164e-05
3.89309e-12
4.4164e-05
-2.99516e-12
4.4164e-05
4.19205e-12
4.4164e-05
-9.53131e-13
4.4164e-05
5.36542e-12
4.4164e-05
3.73672e-12
4.4164e-05
9.57239e-12
4.4164e-05
1.15408e-11
4.4164e-05
1.70986e-11
4.4164e-05
1.64779e-11
6.44228e-12
0.000126159
-7.10568e-14
0.000126159
4.73176e-13
0.000126159
-4.22681e-12
0.000126159
4.53001e-12
0.000126159
-5.47913e-12
0.000126159
5.75222e-12
0.000126159
-6.26238e-12
0.000126159
6.16086e-12
0.000126159
-6.216e-12
0.000126159
6.02868e-12
0.000126159
-5.2388e-12
0.000126159
5.78486e-12
0.000126159
-3.04332e-12
0.000126159
5.62403e-12
0.000126159
1.16486e-12
0.000126159
7.9696e-12
0.000126159
6.9509e-12
0.000126159
1.38716e-11
0.000126159
1.95971e-11
1.0922e-11
0.000201822
1.5974e-13
0.000201822
8.01063e-14
0.000201822
-5.5873e-12
0.000201822
5.3819e-12
0.000201822
-6.57046e-12
0.000201822
6.78909e-12
0.000201822
-7.3048e-12
0.000201822
7.15421e-12
0.000201822
-7.21144e-12
0.000201822
6.78295e-12
0.000201822
-6.27276e-12
0.000201822
5.91087e-12
0.000201822
-4.44758e-12
0.000201822
4.09543e-12
0.000201822
-2.21787e-12
0.000201822
3.76026e-12
0.000201822
-1.05304e-12
0.000201822
6.2596e-12
0.000201822
2.16964e-11
1.82494e-11
0.000271151
3.97144e-13
0.000271151
-4.06078e-13
0.000271151
-6.62497e-12
0.000271151
5.65568e-12
0.000271151
-7.04395e-12
0.000271151
7.13431e-12
0.000271151
-7.55571e-12
0.000271151
7.40619e-12
0.000271151
-7.35412e-12
0.000271151
6.84896e-12
0.000271151
-6.45689e-12
0.000271151
5.4999e-12
0.000271151
-4.96952e-12
0.000271151
2.38925e-12
0.000271151
-4.73311e-12
0.000271151
2.18941e-13
0.000271151
-7.97111e-12
0.000271151
6.20758e-14
0.000271151
2.53095e-11
2.60004e-11
0.000334148
6.14437e-13
0.000334148
-7.93749e-13
0.000334148
-7.37447e-12
0.000334148
5.54513e-12
0.000334148
-7.08594e-12
0.000334148
6.99643e-12
0.000334148
-7.25986e-12
0.000334148
7.14098e-12
0.000334148
-6.89277e-12
0.000334148
6.45925e-12
0.000334148
-5.98209e-12
0.000334148
4.82706e-12
0.000334148
-4.65216e-12
0.000334148
9.42715e-13
0.000334148
-6.00064e-12
0.000334148
-1.84593e-12
0.000334148
-1.25647e-11
0.000334148
-3.13374e-12
0.000334148
3.16501e-11
3.49681e-11
0.000390812
8.1995e-13
0.000390812
-9.63862e-13
0.000390812
-7.76506e-12
0.000390812
5.15793e-12
0.000390812
-6.74716e-12
0.000390812
6.46664e-12
0.000390812
-6.51795e-12
0.000390812
6.45015e-12
0.000390812
-5.95344e-12
0.000390812
5.6873e-12
0.000390812
-5.00378e-12
0.000390812
3.90703e-12
0.000390812
-3.73964e-12
0.000390812
-3.70166e-13
0.000390812
-6.43348e-12
0.000390812
-2.99866e-12
0.000390812
-1.5565e-11
0.000390812
-4.40079e-12
0.000390812
3.92239e-11
4.4098e-11
0.000441143
9.90656e-13
0.000441143
-8.37648e-13
0.000441143
-7.7866e-12
0.000441143
4.63073e-12
0.000441143
-6.11809e-12
0.000441143
5.67544e-12
0.000441143
-5.47049e-12
0.000441143
5.46489e-12
0.000441143
-4.69786e-12
0.000441143
4.64495e-12
0.000441143
-3.69923e-12
0.000441143
2.80312e-12
0.000441143
-2.46248e-12
0.000441143
-1.59433e-12
0.000441143
-6.33165e-12
0.000441143
-3.61821e-12
0.000441143
-1.74413e-11
0.000441143
-4.50396e-12
0.000441143
4.69794e-11
5.27349e-11
0.000485142
1.08529e-12
0.000485142
-4.01356e-13
0.000485142
-7.4563e-12
0.000485142
4.07278e-12
0.000485142
-5.27709e-12
0.000485142
4.73414e-12
0.000485142
-4.23567e-12
0.000485142
4.2979e-12
0.000485142
-3.26189e-12
0.000485142
3.42841e-12
0.000485142
-2.21816e-12
0.000485142
1.5743e-12
0.000485142
-1.01363e-12
0.000485142
-2.76251e-12
0.000485142
-5.92822e-12
0.000485142
-4.015e-12
0.000485142
-1.85645e-11
0.000485142
-4.1248e-12
0.000485142
5.3985e-11
6.02968e-11
0.000522807
1.0584e-12
0.000522807
3.00398e-13
0.000522807
-6.82139e-12
0.000522807
3.55556e-12
0.000522807
-4.29248e-12
0.000522807
3.72933e-12
0.000522807
-2.90825e-12
0.000522807
3.04042e-12
0.000522807
-1.75294e-12
0.000522807
2.11781e-12
0.000522807
-6.78337e-13
0.000522807
2.77123e-13
0.000522807
4.59819e-13
0.000522807
-3.88673e-12
0.000522807
-5.37662e-12
0.000522807
-4.40345e-12
0.000522807
-1.91703e-11
0.000522807
-3.7744e-12
0.000522807
5.94766e-11
6.62882e-11
0.00055414
8.71546e-13
0.00055414
1.17682e-12
0.00055414
-5.95572e-12
0.00055414
3.11065e-12
0.00055414
-3.22622e-12
0.00055414
2.72283e-12
0.00055414
-1.56306e-12
0.00055414
1.76381e-12
0.00055414
-2.53859e-13
0.00055414
7.79563e-13
0.00055414
8.29791e-13
0.00055414
-1.03437e-12
0.00055414
1.85027e-12
0.00055414
-4.96196e-12
0.00055414
-4.76872e-12
0.00055414
-4.91242e-12
0.00055414
-1.93876e-11
0.00055414
-3.78803e-12
0.00055414
6.28658e-11
7.03019e-11
0.00057914
5.0626e-13
0.00057914
2.11043e-12
0.00057914
-4.95258e-12
0.00057914
2.73565e-12
0.00057914
-2.13847e-12
0.00057914
1.75607e-12
0.00057914
-2.61947e-13
0.00057914
5.24877e-13
0.00057914
1.16887e-12
0.00057914
-5.28814e-13
0.00057914
2.23413e-12
0.00057914
-2.30739e-12
0.00057914
3.07884e-12
0.00057914
-5.96978e-12
0.00057914
-4.15785e-12
0.00057914
-5.60008e-12
0.00057914
-1.92779e-11
0.00057914
-4.33567e-12
0.00057914
6.3757e-11
7.20329e-11
0.000597807
-2.60897e-14
0.000597807
2.97665e-12
0.000597807
-3.91332e-12
0.000597807
2.40481e-12
0.000597807
-1.08949e-12
0.000597807
8.56999e-13
0.000597807
9.39895e-13
0.000597807
-6.28333e-13
0.000597807
2.45722e-12
0.000597807
-1.75357e-12
0.000597807
3.47339e-12
0.000597807
-3.48754e-12
0.000597807
4.08677e-12
0.000597807
-6.87723e-12
0.000597807
-3.5737e-12
0.000597807
-6.45986e-12
0.000597807
-1.88595e-11
0.000597807
-5.43426e-12
0.000597807
6.19727e-11
7.13112e-11
0.000610142
-6.78446e-13
0.000610142
3.66096e-12
0.000610142
-2.93359e-12
0.000610142
2.08208e-12
0.000610142
-1.38995e-13
0.000610142
4.66082e-14
0.000610142
1.98873e-12
0.000610142
-1.65091e-12
0.000610142
3.55431e-12
0.000610142
-2.83993e-12
0.000610142
4.48963e-12
0.000610142
-4.51556e-12
0.000610142
4.82815e-12
0.000610142
-7.6337e-12
0.000610142
-3.03034e-12
0.000610142
-7.41847e-12
0.000610142
-1.81168e-11
0.000610142
-6.94115e-12
0.000610142
5.75937e-11
6.81447e-11
0.000616143
-1.36255e-12
0.000616143
4.07333e-12
0.000616143
-2.09038e-12
0.000616143
1.73416e-12
0.000616143
6.56304e-13
0.000616143
-6.54067e-13
0.000616143
2.82851e-12
0.000616143
-2.49599e-12
0.000616143
4.3987e-12
0.000616143
-3.72728e-12
0.000616143
5.22358e-12
0.000616143
-5.32189e-12
0.000616143
5.26727e-12
0.000616143
-8.16147e-12
0.000616143
-2.52363e-12
0.000616143
-8.32599e-12
0.000616143
-1.69869e-11
0.000616143
-8.54105e-12
0.000616143
5.09995e-11
6.27714e-11
0.000615812
-1.95892e-12
0.000615812
4.15376e-12
0.000615812
-1.43021e-12
0.000615812
1.34108e-12
0.000615812
1.24609e-12
0.000615812
-1.21938e-12
0.000615812
3.39953e-12
0.000615812
-3.11215e-12
0.000615812
4.92161e-12
0.000615812
-4.34713e-12
0.000615812
5.6123e-12
0.000615812
-5.82364e-12
0.000615812
5.37864e-12
0.000615812
-8.34974e-12
0.000615812
-2.02331e-12
0.000615812
-8.94236e-12
0.000615812
-1.53318e-11
0.000615812
-9.73216e-12
0.000615812
4.28966e-11
5.56997e-11
0.000609148
-2.32314e-12
0.000609148
3.87768e-12
0.000609148
-9.62994e-13
0.000609148
9.03601e-13
0.000609148
1.58937e-12
0.000609148
-1.61538e-12
0.000609148
3.63897e-12
0.000609148
-3.44117e-12
0.000609148
5.04728e-12
0.000609148
-4.62002e-12
0.000609148
5.59064e-12
0.000609148
-5.92048e-12
0.000609148
5.1495e-12
0.000609148
-8.04786e-12
0.000609148
-1.46459e-12
0.000609148
-8.93714e-12
0.000609148
-1.29352e-11
0.000609148
-9.86716e-12
0.000609148
3.42791e-11
4.76998e-11
0.000596151
-2.34783e-12
0.000596151
3.24714e-12
0.000596151
-6.58991e-13
0.000596151
4.27526e-13
0.000596151
1.67413e-12
0.000596151
-1.83009e-12
0.000596151
3.5144e-12
0.000596151
-3.45772e-12
0.000596151
4.73558e-12
0.000596151
-4.49639e-12
0.000596151
5.14233e-12
0.000596151
-5.52012e-12
0.000596151
4.65423e-12
0.000596151
-7.04613e-12
0.000596151
-6.17724e-13
0.000596151
-7.72855e-12
0.000596151
-9.17618e-12
0.000596151
-7.74776e-12
0.000596151
2.69618e-11
4.01191e-11
0.000576822
-1.93366e-12
0.000576822
2.30607e-12
0.000576822
-4.43839e-13
0.000576822
-9.28073e-15
0.000576822
1.46196e-12
0.000576822
-1.76168e-12
0.000576822
2.92862e-12
0.000576822
-3.02981e-12
0.000576822
3.85826e-12
0.000576822
-3.8299e-12
0.000576822
4.11958e-12
0.000576822
-4.51869e-12
0.000576822
3.70002e-12
0.000576822
-5.3708e-12
0.000576822
1.09267e-13
0.000576822
-5.68474e-12
0.000576822
-5.08326e-12
0.000576822
-4.55535e-12
0.000576822
1.99174e-11
3.23305e-11
0.000551159
-1.12869e-12
0.000551159
1.12023e-12
0.000551159
-2.34156e-13
0.000551159
-4.02066e-13
0.000551159
1.01685e-12
0.000551159
-1.46297e-12
0.000551159
1.96096e-12
0.000551159
-2.23143e-12
0.000551159
2.52165e-12
0.000551159
-2.671e-12
0.000551159
2.68847e-12
0.000551159
-2.87607e-12
0.000551159
2.62102e-12
0.000551159
-2.74062e-12
0.000551159
1.38827e-12
0.000551159
-1.72628e-12
0.000551159
8.57111e-13
0.000551159
2.05453e-12
0.000551159
1.66867e-11
2.61039e-11
0.000519164
0.000519164
0.000519164
0.000519164
0.000519164
0.000519164
0.000519164
0.000519164
0.000519164
0.000519164
0.000519164
0.000519164
0.000519164
0.000519164
0.000519164
0.000519164
0.000519164
0.000519164
0.000519164
)
;

boundaryField
{
    top
    {
        type            calculated;
        value           uniform 0;
    }
    bottom
    {
        type            calculated;
        value           uniform 0;
    }
    inlet
    {
        type            calculated;
        value           nonuniform List<scalar> 
20
(
-4.4164e-05
-0.000126159
-0.000201822
-0.000271151
-0.000334148
-0.000390812
-0.000441143
-0.000485142
-0.000522807
-0.00055414
-0.00057914
-0.000597807
-0.000610142
-0.000616143
-0.000615812
-0.000609148
-0.000596151
-0.000576822
-0.000551159
-0.000519164
)
;
    }
    outlet
    {
        type            calculated;
        value           nonuniform List<scalar> 
20
(
4.4164e-05
0.000126159
0.000201822
0.000271151
0.000334148
0.000390812
0.000441143
0.000485142
0.000522807
0.00055414
0.00057914
0.000597807
0.000610142
0.000616143
0.000615812
0.000609148
0.000596151
0.000576822
0.000551159
0.000519164
)
;
    }
    frontAndBack
    {
        type            empty;
        value           nonuniform 0();
    }
}


// ************************************************************************* //
