/*--------------------------------*- C++ -*----------------------------------*\
| =========                 |                                                 |
| \\      /  F ield         | OpenFOAM: The Open Source CFD Toolbox           |
|  \\    /   O peration     | Version:  v1706                                 |
|   \\  /    A nd           | Web:      www.OpenFOAM.com                      |
|    \\/     M anipulation  |                                                 |
\*---------------------------------------------------------------------------*/
FoamFile
{
    version     2.0;
    format      ascii;
    class       volVectorField;
    location    "2.5";
    object      U;
}
// * * * * * * * * * * * * * * * * * * * * * * * * * * * * * * * * * * * * * //

dimensions      [0 1 -1 0 0 0 0];


internalField   nonuniform List<vector> 
400
(
(0.88328 1.36116e-10 0)
(0.88328 -7.14511e-12 0)
(0.88328 -3.45118e-10 0)
(0.88328 4.91477e-10 0)
(0.88328 -5.59013e-10 0)
(0.88328 6.42623e-10 0)
(0.88328 -6.92909e-10 0)
(0.88328 7.03348e-10 0)
(0.88328 -7.43392e-10 0)
(0.88328 6.68861e-10 0)
(0.88328 -7.56336e-10 0)
(0.88328 4.85317e-10 0)
(0.88328 -8.23886e-10 0)
(0.88328 -1.71626e-11 0)
(0.88328 -1.15557e-09 0)
(0.88328 -9.62978e-10 0)
(0.88328 -2.0444e-09 0)
(0.88328 -1.85843e-09 0)
(0.88328 -1.82012e-09 0)
(0.88328 -1.33259e-09 0)
(2.52318 -3.96186e-10 0)
(2.52318 8.33802e-10 0)
(2.52318 -4.03982e-09 0)
(2.52318 4.46788e-09 0)
(2.52318 -5.38461e-09 0)
(2.52318 5.637e-09 0)
(2.52318 -6.1631e-09 0)
(2.52318 6.05149e-09 0)
(2.52318 -6.0461e-09 0)
(2.52318 6.04098e-09 0)
(2.52318 -4.80607e-09 0)
(2.52318 6.29485e-09 0)
(2.52318 -1.83939e-09 0)
(2.52318 7.59649e-09 0)
(2.52318 4.75822e-09 0)
(2.52318 1.31898e-08 0)
(2.52318 1.5428e-08 0)
(2.52318 2.38695e-08 0)
(2.52318 2.65139e-08 0)
(2.52318 1.33205e-08 0)
(4.03643 2.2323e-10 0)
(4.03643 1.40312e-10 0)
(4.03643 -4.36899e-09 0)
(4.03643 4.48721e-09 0)
(4.03643 -5.37984e-09 0)
(4.03643 5.65845e-09 0)
(4.03643 -6.08639e-09 0)
(4.03643 5.98936e-09 0)
(4.03643 -6.08305e-09 0)
(4.03643 5.67738e-09 0)
(4.03643 -5.42057e-09 0)
(4.03643 4.84448e-09 0)
(4.03643 -4.19172e-09 0)
(4.03643 2.98322e-09 0)
(4.03643 -2.88613e-09 0)
(4.03643 1.59196e-09 0)
(4.03643 -2.94384e-09 0)
(4.03643 2.21961e-09 0)
(4.03643 1.26387e-08 0)
(4.03643 9.62987e-09 0)
(5.42303 2.60766e-10 0)
(5.42303 -1.88978e-10 0)
(5.42303 -6.17991e-09 0)
(5.42303 5.57345e-09 0)
(5.42303 -6.89988e-09 0)
(5.42303 7.03518e-09 0)
(5.42303 -7.54083e-09 0)
(5.42303 7.36046e-09 0)
(5.42303 -7.39341e-09 0)
(5.42303 6.90554e-09 0)
(5.42303 -6.43611e-09 0)
(5.42303 5.85047e-09 0)
(5.42303 -4.65546e-09 0)
(5.42303 3.55754e-09 0)
(5.42303 -3.07043e-09 0)
(5.42303 2.75167e-09 0)
(5.42303 -3.35164e-09 0)
(5.42303 4.82215e-09 0)
(5.42303 2.56215e-08 0)
(5.42302 2.43022e-08 0)
(6.68296 5.34716e-10 0)
(6.68296 -7.05114e-10 0)
(6.68296 -6.96862e-09 0)
(6.68296 5.51753e-09 0)
(6.68296 -7.00805e-09 0)
(6.68296 6.98683e-09 0)
(6.68296 -7.35024e-09 0)
(6.68296 7.19917e-09 0)
(6.68296 -7.07831e-09 0)
(6.68296 6.58844e-09 0)
(6.68296 -6.19536e-09 0)
(6.68296 5.1099e-09 0)
(6.68296 -4.80899e-09 0)
(6.68296 1.62902e-09 0)
(6.68296 -5.39925e-09 0)
(6.68296 -8.48676e-10 0)
(6.68296 -1.03047e-08 0)
(6.68296 -1.5349e-09 0)
(6.68296 2.87432e-08 0)
(6.68296 3.11189e-08 0)
(7.81624 7.39107e-10 0)
(7.81624 -9.91588e-10 0)
(7.81624 -7.57889e-09 0)
(7.81624 5.2807e-09 0)
(7.81624 -6.893e-09 0)
(7.81624 6.68122e-09 0)
(7.81624 -6.86102e-09 0)
(7.81624 6.75586e-09 0)
(7.81624 -6.40196e-09 0)
(7.81624 6.04724e-09 0)
(7.81624 -5.47667e-09 0)
(7.81624 4.36468e-09 0)
(7.81624 -4.16755e-09 0)
(7.81624 3.36587e-10 0)
(7.81624 -6.14706e-09 0)
(7.81624 -2.26841e-09 0)
(7.81624 -1.38921e-08 0)
(7.81624 -3.50482e-09 0)
(7.81624 3.59699e-08 0)
(7.81624 4.03665e-08 0)
(8.82287 9.27732e-10 0)
(8.82287 -1.0096e-09 0)
(8.82287 -7.80876e-09 0)
(8.82287 4.83079e-09 0)
(8.82287 -6.43028e-09 0)
(8.82287 6.03814e-09 0)
(8.82287 -5.9837e-09 0)
(8.82287 5.93986e-09 0)
(8.82287 -5.31702e-09 0)
(8.82287 5.16568e-09 0)
(8.82287 -4.33709e-09 0)
(8.82287 3.38595e-09 0)
(8.82287 -3.05127e-09 0)
(8.82287 -8.76968e-10 0)
(8.82287 -6.24757e-09 0)
(8.82287 -3.037e-09 0)
(8.82287 -1.62069e-08 0)
(8.82287 -4.04481e-09 0)
(8.82287 4.3719e-08 0)
(8.82286 4.9265e-08 0)
(9.70283 1.06348e-09 0)
(9.70283 -7.12699e-10 0)
(9.70283 -7.6681e-09 0)
(9.70283 4.29838e-09 0)
(9.70283 -5.71194e-09 0)
(9.70283 5.18679e-09 0)
(9.70283 -4.85683e-09 0)
(9.70283 4.88079e-09 0)
(9.70283 -3.98109e-09 0)
(9.70283 4.05566e-09 0)
(9.70283 -2.94402e-09 0)
(9.70283 2.24523e-09 0)
(9.70283 -1.66867e-09 0)
(9.70283 -2.02809e-09 0)
(9.70283 -5.93795e-09 0)
(9.70283 -3.44295e-09 0)
(9.70283 -1.75905e-08 0)
(9.70283 -3.76226e-09 0)
(9.70283 5.11784e-08 0)
(9.70283 5.73581e-08 0)
(10.4561 1.09976e-09 0)
(10.4561 -1.18783e-10 0)
(10.4561 -7.18826e-09 0)
(10.4561 3.77384e-09 0)
(10.4561 -4.80933e-09 0)
(10.4561 4.22433e-09 0)
(10.4561 -3.58519e-09 0)
(10.4561 3.6798e-09 0)
(10.4561 -2.51454e-09 0)
(10.4561 2.80443e-09 0)
(10.4561 -1.43202e-09 0)
(10.4561 9.99081e-10 0)
(10.4561 -1.89527e-10 0)
(10.4561 -3.14216e-09 0)
(10.4561 -5.41265e-09 0)
(10.4561 -3.7514e-09 0)
(10.4561 -1.83524e-08 0)
(10.4561 -3.26145e-09 0)
(10.4561 5.75013e-08 0)
(10.4561 6.41225e-08 0)
(11.0828 9.93113e-10 0)
(11.0828 7.01071e-10 0)
(11.0828 -6.4315e-09 0)
(11.0828 3.30916e-09 0)
(11.0828 -3.78779e-09 0)
(11.0828 3.22521e-09 0)
(11.0828 -2.25434e-09 0)
(11.0828 2.41953e-09 0)
(11.0828 -1.01331e-09 0)
(11.0828 1.48666e-09 0)
(11.0828 9.49578e-11 0)
(11.0828 -2.96436e-10 0)
(11.0828 1.25708e-09 0)
(11.0828 -4.22338e-09 0)
(11.0828 -4.79842e-09 0)
(11.0828 -4.14402e-09 0)
(11.0828 -1.86869e-08 0)
(11.0828 -2.99123e-09 0)
(11.0828 6.20065e-08 0)
(11.0828 6.91176e-08 0)
(11.5828 7.13825e-10 0)
(11.5828 1.63876e-09 0)
(11.5828 -5.48426e-09 0)
(11.5828 2.91784e-09 0)
(11.5828 -2.70974e-09 0)
(11.5828 2.2467e-09 0)
(11.5828 -9.33152e-10 0)
(11.5828 1.16564e-09 0)
(11.5828 4.46984e-10 0)
(11.5828 1.65518e-10 0)
(11.5828 1.5548e-09 0)
(11.5828 -1.58655e-09 0)
(11.5828 2.57637e-09 0)
(11.5828 -5.25916e-09 0)
(11.5828 -4.16885e-09 0)
(11.5828 -4.71531e-09 0)
(11.5828 -1.86945e-08 0)
(11.5828 -3.20327e-09 0)
(11.5828 6.41891e-08 0)
(11.5828 7.19838e-08 0)
(11.9561 2.57054e-10 0)
(11.9561 2.56951e-09 0)
(11.9561 -4.44797e-09 0)
(11.9561 2.58431e-09 0)
(11.9561 -1.63782e-09 0)
(11.9561 1.32445e-09 0)
(11.9561 3.18245e-10 0)
(11.9561 -2.7604e-11 0)
(11.9561 1.80269e-09 0)
(11.9561 -1.10146e-09 0)
(11.9561 2.87848e-09 0)
(11.9561 -2.81583e-09 0)
(11.9561 3.69791e-09 0)
(11.9561 -6.22255e-09 0)
(11.9561 -3.56686e-09 0)
(11.9561 -5.49473e-09 0)
(11.9561 -1.84183e-08 0)
(11.9561 -3.99996e-09 0)
(11.9561 6.3747e-08 0)
(11.9561 7.24752e-08 0)
(12.2028 -3.4913e-10 0)
(12.2028 3.37064e-09 0)
(12.2028 -3.42527e-09 0)
(12.2028 2.27588e-09 0)
(12.2028 -6.34071e-10 0)
(12.2028 4.78346e-10 0)
(12.2028 1.44363e-09 0)
(12.2028 -1.11283e-09 0)
(12.2028 2.99555e-09 0)
(12.2028 -2.25859e-09 0)
(12.2028 4.00589e-09 0)
(12.2028 -3.92648e-09 0)
(12.2028 4.56811e-09 0)
(12.2028 -7.07177e-09 0)
(12.2028 -3.01519e-09 0)
(12.2028 -6.44273e-09 0)
(12.2028 -1.78677e-08 0)
(12.2028 -5.35265e-09 0)
(12.2028 6.06176e-08 0)
(12.2028 7.05076e-08 0)
(12.3229 -1.03722e-09 0)
(12.3229 3.93738e-09 0)
(12.3229 -2.50608e-09 0)
(12.3229 1.95612e-09 0)
(12.3229 2.40893e-10 0)
(12.3229 -2.6924e-10 0)
(12.3229 2.38699e-09 0)
(12.3229 -2.04285e-09 0)
(12.3229 3.96534e-09 0)
(12.3229 -3.24628e-09 0)
(12.3229 4.87759e-09 0)
(12.3229 -4.85199e-09 0)
(12.3229 5.146e-09 0)
(12.3229 -7.73953e-09 0)
(12.3229 -2.51758e-09 0)
(12.3229 -7.4477e-09 0)
(12.3229 -1.69962e-08 0)
(12.3229 -7.00408e-09 0)
(12.3229 5.5028e-08 0)
(12.3229 6.61981e-08 0)
(12.3162 -1.70265e-09 0)
(12.3162 4.19407e-09 0)
(12.3162 -1.75446e-09 0)
(12.3162 1.59678e-09 0)
(12.3162 9.32289e-10 0)
(12.3162 -8.94349e-10 0)
(12.3162 3.0905e-09 0)
(12.3162 -2.76887e-09 0)
(12.3162 4.64711e-09 0)
(12.3162 -4.00038e-09 0)
(12.3162 5.43339e-09 0)
(12.3162 -5.5159e-09 0)
(12.3162 5.40265e-09 0)
(12.3162 -8.13103e-09 0)
(12.3162 -2.05578e-09 0)
(12.3162 -8.30266e-09 0)
(12.3162 -1.57012e-08 0)
(12.3162 -8.54461e-09 0)
(12.3162 4.75222e-08 0)
(12.3162 5.99078e-08 0)
(12.183 -2.20406e-09 0)
(12.183 4.09638e-09 0)
(12.183 -1.19857e-09 0)
(12.183 1.1916e-09 0)
(12.183 1.38957e-09 0)
(12.183 -1.35901e-09 0)
(12.183 3.48413e-09 0)
(12.183 -3.22441e-09 0)
(12.183 4.95678e-09 0)
(12.183 -4.43633e-09 0)
(12.183 5.59203e-09 0)
(12.183 -5.82436e-09 0)
(12.183 5.28767e-09 0)
(12.183 -8.13467e-09 0)
(12.183 -1.64758e-09 0)
(12.183 -8.8061e-09 0)
(12.183 -1.39472e-08 0)
(12.183 -9.58427e-09 0)
(12.183 3.87501e-08 0)
(12.183 5.21516e-08 0)
(11.923 -2.46791e-09 0)
(11.923 3.63199e-09 0)
(11.923 -8.30898e-10 0)
(11.923 6.68507e-10 0)
(11.923 1.65599e-09 0)
(11.923 -1.76834e-09 0)
(11.923 3.63828e-09 0)
(11.923 -3.52796e-09 0)
(11.923 4.98712e-09 0)
(11.923 -4.63957e-09 0)
(11.923 5.51684e-09 0)
(11.923 -5.73205e-09 0)
(11.923 5.19211e-09 0)
(11.923 -7.33027e-09 0)
(11.923 -3.90611e-10 0)
(11.923 -7.45846e-09 0)
(11.923 -9.49362e-09 0)
(11.923 -6.67935e-09 0)
(11.923 3.31738e-08 0)
(11.923 4.58803e-08 0)
(11.5364 -2.03046e-09 0)
(11.5364 2.80936e-09 0)
(11.5364 -5.48956e-10 0)
(11.5364 4.38147e-10 0)
(11.5364 1.38177e-09 0)
(11.5364 -1.44317e-09 0)
(11.5364 2.90292e-09 0)
(11.5364 -2.81716e-09 0)
(11.5364 3.89172e-09 0)
(11.5364 -3.7725e-09 0)
(11.5364 4.08844e-09 0)
(11.5364 -4.90303e-09 0)
(11.5364 3.21572e-09 0)
(11.5364 -6.88083e-09 0)
(11.5364 -2.25628e-09 0)
(11.5364 -9.60289e-09 0)
(11.5364 -1.20408e-08 0)
(11.5364 -1.31279e-08 0)
(11.5364 1.44587e-08 0)
(11.5364 3.02801e-08 0)
(11.0232 -1.81458e-09 0)
(11.0232 1.79598e-09 0)
(11.0232 -3.78497e-10 0)
(11.0232 -4.65527e-10 0)
(11.0232 1.53842e-09 0)
(11.0232 -2.12097e-09 0)
(11.0232 2.97334e-09 0)
(11.0232 -3.30772e-09 0)
(11.0232 3.86274e-09 0)
(11.0232 -3.95262e-09 0)
(11.0232 4.22202e-09 0)
(11.0232 -4.16603e-09 0)
(11.0232 4.36201e-09 0)
(11.0232 -3.73596e-09 0)
(11.0232 2.89581e-09 0)
(11.0232 -1.12322e-09 0)
(11.0232 2.98952e-09 0)
(11.0232 5.8941e-09 0)
(11.0232 2.80766e-08 0)
(11.0232 3.49287e-08 0)
(10.3833 -3.18025e-10 0)
(10.3833 4.89014e-10 0)
(10.3833 -1.14058e-10 0)
(10.3833 1.14135e-10 0)
(10.3833 1.63041e-10 0)
(10.3833 -1.49485e-10 0)
(10.3833 3.83436e-10 0)
(10.3833 -3.59107e-10 0)
(10.3833 5.11094e-10 0)
(10.3833 -5.61856e-10 0)
(10.3833 4.43435e-10 0)
(10.3833 -9.29888e-10 0)
(10.3833 2.46627e-12 0)
(10.3833 -1.68833e-09 0)
(10.3833 -1.56606e-09 0)
(10.3833 -3.63064e-09 0)
(10.3833 -4.92441e-09 0)
(10.3833 -6.58693e-09 0)
(10.3833 -2.55846e-09 0)
(10.3833 5.49833e-09 0)
)
;

boundaryField
{
    top
    {
        type            fixedValue;
        value           uniform (10 0 0);
    }
    bottom
    {
        type            fixedValue;
        value           uniform (0 0 0);
    }
    inlet
    {
        type            zeroGradient;
    }
    outlet
    {
        type            zeroGradient;
    }
    frontAndBack
    {
        type            empty;
    }
}


// ************************************************************************* //
