/*--------------------------------*- C++ -*----------------------------------*\
| =========                 |                                                 |
| \\      /  F ield         | OpenFOAM: The Open Source CFD Toolbox           |
|  \\    /   O peration     | Version:  v1706                                 |
|   \\  /    A nd           | Web:      www.OpenFOAM.com                      |
|    \\/     M anipulation  |                                                 |
\*---------------------------------------------------------------------------*/
FoamFile
{
    version     2.0;
    format      ascii;
    class       surfaceScalarField;
    location    "2.4";
    object      phi;
}
// * * * * * * * * * * * * * * * * * * * * * * * * * * * * * * * * * * * * * //

dimensions      [0 3 -1 0 0 0 0];
oriented        oriented;


internalField   nonuniform List<scalar> 
760
(
4.4164e-05
-1.15809e-12
4.4164e-05
-1.94137e-13
4.4164e-05
-6.9264e-13
4.4164e-05
4.97341e-13
4.4164e-05
-7.83763e-13
4.4164e-05
7.7905e-13
4.4164e-05
-8.55466e-13
4.4164e-05
8.47523e-13
4.4164e-05
-8.69749e-13
4.4164e-05
7.45694e-13
4.4164e-05
-8.35236e-13
4.4164e-05
4.68332e-13
4.4164e-05
-8.42632e-13
4.4164e-05
-4.05215e-14
4.4164e-05
-1.08319e-12
4.4164e-05
-8.69963e-13
4.4164e-05
-1.83134e-12
4.4164e-05
-1.58919e-12
4.4164e-05
-2.25993e-12
-1.94242e-12
0.000126159
-3.02654e-12
0.000126159
-1.59606e-12
0.000126159
-1.34657e-12
0.000126159
3.63928e-13
0.000126159
-1.03613e-12
0.000126159
9.18119e-13
0.000126159
-9.54928e-13
0.000126159
1.10073e-12
0.000126159
-7.98811e-13
0.000126159
1.1411e-12
0.000126159
-4.63668e-13
0.000126159
1.17363e-12
0.000126159
7.60378e-14
0.000126159
1.40602e-12
0.000126159
1.01768e-12
0.000126159
1.81378e-12
0.000126159
1.80891e-12
0.000126159
2.36316e-12
0.000126159
-3.09764e-12
-5.27428e-12
0.000201822
-5.00072e-12
0.000201822
-3.71038e-12
0.000201822
-1.97851e-12
0.000201822
-2.12581e-13
0.000201822
-9.53995e-13
0.000201822
5.63698e-13
0.000201822
-6.05547e-13
0.000201822
8.29635e-13
0.000201822
-2.4191e-13
0.000201822
1.05773e-12
0.000201822
3.90787e-13
0.000201822
1.55879e-12
0.000201822
1.46992e-12
0.000201822
2.84444e-12
0.000201822
3.78208e-12
0.000201822
4.71325e-12
0.000201822
6.46927e-12
0.000201822
6.86963e-12
0.000201822
-5.49416e-12
-1.04558e-11
0.000271151
-6.84416e-12
0.000271151
-5.92115e-12
0.000271151
-2.72844e-12
0.000271151
-8.26912e-13
0.000271151
-9.44603e-13
0.000271151
1.86946e-13
0.000271151
-3.46274e-13
0.000271151
5.18018e-13
0.000271151
1.85861e-13
0.000271151
8.89494e-13
0.000271151
1.04776e-12
0.000271151
1.78819e-12
0.000271151
2.51478e-12
0.000271151
3.96275e-12
0.000271151
5.98194e-12
0.000271151
6.71636e-12
0.000271151
1.01846e-11
0.000271151
1.022e-11
0.000271151
-9.5643e-12
-1.6194e-11
0.000334148
-8.30962e-12
0.000334148
-7.85072e-12
0.000334148
-3.45521e-12
0.000334148
-1.3862e-12
0.000334148
-9.87524e-13
0.000334148
-1.55826e-13
0.000334148
-1.81248e-13
0.000334148
2.19693e-13
0.000334148
4.74958e-13
0.000334148
6.85293e-13
0.000334148
1.49128e-12
0.000334148
1.89689e-12
0.000334148
3.18155e-12
0.000334148
4.7565e-12
0.000334148
7.54939e-12
0.000334148
7.81482e-12
0.000334148
1.27883e-11
0.000334148
1.22971e-11
0.000334148
-1.45743e-11
-2.1938e-11
0.000390812
-9.22322e-12
0.000390812
-9.24167e-12
0.000390812
-4.02432e-12
0.000390812
-1.81956e-12
0.000390812
-1.04658e-12
0.000390812
-4.30706e-13
0.000390812
-9.40287e-14
0.000390812
-3.14286e-14
0.000390812
6.45962e-13
0.000390812
4.91828e-13
0.000390812
1.75605e-12
0.000390812
1.95546e-12
0.000390812
3.54476e-12
0.000390812
5.33391e-12
0.000390812
8.63007e-12
0.000390812
8.28458e-12
0.000390812
1.45193e-11
0.000390812
1.34404e-11
0.000390812
-1.96064e-11
-2.70123e-11
0.000441143
-9.48603e-12
0.000441143
-9.94251e-12
0.000441143
-4.32752e-12
0.000441143
-2.0795e-12
0.000441143
-1.08198e-12
0.000441143
-6.22096e-13
0.000441143
-5.97645e-14
0.000441143
-2.21495e-13
0.000441143
7.24946e-13
0.000441143
3.33656e-13
0.000441143
1.87615e-12
0.000441143
2.005e-12
0.000441143
3.67036e-12
0.000441143
5.75872e-12
0.000441143
9.33299e-12
0.000441143
8.34437e-12
0.000441143
1.55555e-11
0.000441143
1.38903e-11
0.000441143
-2.40439e-11
-3.10213e-11
0.000485141
-9.07849e-12
0.000485141
-9.90863e-12
0.000485141
-4.30039e-12
0.000485141
-2.14493e-12
0.000485141
-1.06082e-12
0.000485141
-7.28525e-13
0.000485141
-5.2578e-14
0.000485141
-3.50621e-13
0.000485141
7.39048e-13
0.000485141
2.19017e-13
0.000485141
1.88474e-12
0.000485141
2.06264e-12
0.000485141
3.62023e-12
0.000485141
6.06378e-12
0.000485141
9.73928e-12
0.000485141
8.16659e-12
0.000485141
1.60384e-11
0.000485141
1.38306e-11
0.000485141
-2.75013e-11
-3.37745e-11
0.000522807
-8.05434e-12
0.000522807
-9.18635e-12
0.000522807
-3.9354e-12
0.000522807
-2.01995e-12
0.000522807
-9.67582e-13
0.000522807
-7.56142e-13
0.000522807
-5.36493e-14
0.000522807
-4.24178e-13
0.000522807
7.09388e-13
0.000522807
1.48488e-13
0.000522807
1.80971e-12
0.000522807
2.13017e-12
0.000522807
3.44671e-12
0.000522807
6.26268e-12
0.000522807
9.90133e-12
0.000522807
7.8815e-12
0.000522807
1.60843e-11
0.000522807
1.34161e-11
0.000522807
-2.97339e-11
-3.51966e-11
0.00055414
-6.53253e-12
0.00055414
-7.89857e-12
0.00055414
-3.28085e-12
0.00055414
-1.73394e-12
0.00055414
-8.06108e-13
0.00055414
-7.17984e-13
0.00055414
-5.25419e-14
0.00055414
-4.51078e-13
0.00055414
6.51508e-13
0.00055414
1.16658e-13
0.00055414
1.67498e-12
0.00055414
2.19739e-12
0.00055414
3.19417e-12
0.00055414
6.35555e-12
0.00055414
9.84933e-12
0.00055414
7.57733e-12
0.00055414
1.57893e-11
0.00055414
1.27789e-11
0.00055414
-3.05976e-11
-3.52885e-11
0.00057914
-4.6813e-12
0.00057914
-6.22392e-12
0.00057914
-2.43149e-12
0.00057914
-1.33775e-12
0.00057914
-5.97668e-13
0.00057914
-6.32477e-13
0.00057914
-4.63106e-14
0.00057914
-4.42358e-13
0.00057914
5.76471e-13
0.00057914
1.14102e-13
0.00057914
1.50205e-12
0.00057914
2.24698e-12
0.00057914
2.90009e-12
0.00057914
6.33607e-12
0.00057914
9.60146e-12
0.00057914
7.30524e-12
0.00057914
1.52343e-11
0.00057914
1.20285e-11
0.00057914
-3.00307e-11
-3.40985e-11
0.000597807
-2.69964e-12
0.000597807
-4.37428e-12
0.000597807
-1.51157e-12
0.000597807
-8.96067e-13
0.000597807
-3.74561e-13
0.000597807
-5.21905e-13
0.000597807
-3.6621e-14
0.000597807
-4.10894e-13
0.000597807
4.93258e-13
0.000597807
1.28132e-13
0.000597807
1.31102e-12
0.000597807
2.25797e-12
0.000597807
2.59555e-12
0.000597807
6.19469e-12
0.000597807
9.17176e-12
0.000597807
7.08197e-12
0.000597807
1.44848e-11
0.000597807
1.12436e-11
0.000597807
-2.80568e-11
-3.17144e-11
0.000610141
-7.99137e-13
0.000610141
-2.57133e-12
0.000610141
-6.52659e-13
0.000610141
-4.77158e-13
0.000610141
-1.71438e-13
0.000610141
-4.0988e-13
0.000610141
-2.60228e-14
0.000610141
-3.70995e-13
0.000610141
4.10646e-13
0.000610141
1.43253e-13
0.000610141
1.12103e-12
0.000610141
2.20805e-12
0.000610141
2.30472e-12
0.000610141
5.91866e-12
0.000610141
8.57367e-12
0.000610141
6.88854e-12
0.000610141
1.35818e-11
0.000610141
1.04588e-11
0.000610141
-2.47996e-11
-2.82696e-11
0.000616143
8.18987e-13
0.000616143
-1.01871e-12
0.000616143
2.87597e-14
0.000616143
-1.40374e-13
0.000616143
-1.64108e-14
0.000616143
-3.17761e-13
0.000616143
-1.48847e-14
0.000616143
-3.37349e-13
0.000616143
3.38374e-13
0.000616143
1.41996e-13
0.000616143
9.4904e-13
0.000616143
2.07472e-12
0.000616143
2.04205e-12
0.000616143
5.48949e-12
0.000616143
7.81765e-12
0.000616143
6.66607e-12
0.000616143
1.25277e-11
0.000616143
9.64592e-12
0.000616143
-2.05071e-11
-2.39652e-11
0.000615812
1.97544e-12
0.000615812
1.2063e-13
0.000615812
4.54041e-13
0.000615812
7.51038e-14
0.000615812
7.66331e-14
0.000615812
-2.61042e-13
0.000615812
1.65733e-15
0.000615812
-3.23449e-13
0.000615812
2.88835e-13
0.000615812
1.06499e-13
0.000615812
8.10647e-13
0.000615812
1.83695e-12
0.000615812
1.81339e-12
0.000615812
4.88322e-12
0.000615812
6.91248e-12
0.000615812
6.31782e-12
0.000615812
1.12797e-11
0.000615812
8.70499e-12
0.000615812
-1.55782e-11
-1.91087e-11
0.000609148
2.54151e-12
0.000609148
7.5993e-13
0.000609148
5.95947e-13
0.000609148
1.61175e-13
0.000609148
1.0977e-13
0.000609148
-2.43327e-13
0.000609148
3.11889e-14
0.000609148
-3.36236e-13
0.000609148
2.72628e-13
0.000609148
2.30394e-14
0.000609148
7.13382e-13
0.000609148
1.47785e-12
0.000609148
1.60529e-12
0.000609148
4.06698e-12
0.000609148
5.84449e-12
0.000609148
5.69565e-12
0.000609148
9.71673e-12
0.000609148
7.43547e-12
0.000609148
-1.06141e-11
-1.41711e-11
0.000596151
2.45377e-12
0.000596151
9.03125e-13
0.000596151
4.92605e-13
0.000596151
1.42269e-13
0.000596151
1.02319e-13
0.000596151
-2.56244e-13
0.000596151
8.41035e-14
0.000596151
-3.76648e-13
0.000596151
2.96958e-13
0.000596151
-1.21017e-13
0.000596151
6.4972e-13
0.000596151
9.74779e-13
0.000596151
1.36738e-12
0.000596151
2.97459e-12
0.000596151
4.53615e-12
0.000596151
4.55042e-12
0.000596151
7.57786e-12
0.000596151
5.49008e-12
0.000596151
-6.46977e-12
-9.84754e-12
0.000576822
1.76365e-12
0.000576822
6.87001e-13
0.000576822
2.39292e-13
0.000576822
7.54966e-14
0.000576822
8.27939e-14
0.000576822
-2.68994e-13
0.000576822
1.66257e-13
0.000576822
-4.14722e-13
0.000576822
3.67047e-13
0.000576822
-2.87052e-13
0.000576822
6.27527e-13
0.000576822
3.94122e-13
0.000576822
1.11493e-12
0.000576822
1.69723e-12
0.000576822
3.10234e-12
0.000576822
2.95565e-12
0.000576822
5.01411e-12
0.000576822
3.02414e-12
0.000576822
-3.64127e-12
-6.69138e-12
0.000551159
6.83122e-13
0.000551159
3.5851e-13
0.000551159
-3.26859e-15
0.000551159
2.5848e-14
0.000551159
9.52867e-14
0.000551159
-2.4977e-13
0.000551159
2.75513e-13
0.000551159
-4.26968e-13
0.000551159
4.50936e-13
0.000551159
-4.6651e-13
0.000551159
5.66998e-13
0.000551159
-2.78154e-13
0.000551159
6.79127e-13
0.000551159
1.31944e-13
0.000551159
1.27117e-12
0.000551159
4.80952e-13
0.000551159
1.42783e-12
0.000551159
-5.94939e-13
0.000551159
-3.29624e-12
-5.45194e-12
0.000519164
0.000519164
0.000519164
0.000519164
0.000519164
0.000519164
0.000519164
0.000519164
0.000519164
0.000519164
0.000519164
0.000519164
0.000519164
0.000519164
0.000519164
0.000519164
0.000519164
0.000519164
0.000519164
)
;

boundaryField
{
    top
    {
        type            calculated;
        value           uniform 0;
    }
    bottom
    {
        type            calculated;
        value           uniform 0;
    }
    inlet
    {
        type            calculated;
        value           nonuniform List<scalar> 
20
(
-4.4164e-05
-0.000126159
-0.000201822
-0.000271151
-0.000334148
-0.000390812
-0.000441143
-0.000485141
-0.000522807
-0.00055414
-0.00057914
-0.000597807
-0.000610141
-0.000616143
-0.000615812
-0.000609148
-0.000596151
-0.000576822
-0.000551159
-0.000519164
)
;
    }
    outlet
    {
        type            calculated;
        value           nonuniform List<scalar> 
20
(
4.4164e-05
0.000126159
0.000201822
0.000271151
0.000334148
0.000390812
0.000441143
0.000485141
0.000522807
0.00055414
0.00057914
0.000597807
0.000610141
0.000616143
0.000615812
0.000609148
0.000596151
0.000576822
0.000551159
0.000519164
)
;
    }
    frontAndBack
    {
        type            empty;
        value           nonuniform 0();
    }
}


// ************************************************************************* //
