/*--------------------------------*- C++ -*----------------------------------*\
| =========                 |                                                 |
| \\      /  F ield         | OpenFOAM: The Open Source CFD Toolbox           |
|  \\    /   O peration     | Version:  v1706                                 |
|   \\  /    A nd           | Web:      www.OpenFOAM.com                      |
|    \\/     M anipulation  |                                                 |
\*---------------------------------------------------------------------------*/
FoamFile
{
    version     2.0;
    format      ascii;
    class       volVectorField;
    location    "2.4";
    object      U;
}
// * * * * * * * * * * * * * * * * * * * * * * * * * * * * * * * * * * * * * //

dimensions      [0 1 -1 0 0 0 0];


internalField   nonuniform List<vector> 
400
(
(0.88328 -4.85519e-10 0)
(0.88328 -1.69985e-10 0)
(0.88328 -1.80081e-10 0)
(0.88328 6.9232e-11 0)
(0.88328 -1.48055e-10 0)
(0.88328 1.4466e-10 0)
(0.88328 -1.31481e-10 0)
(0.88328 1.88683e-10 0)
(0.88328 -7.8853e-11 0)
(0.88328 2.34318e-10 0)
(0.88328 3.62408e-11 0)
(0.88328 3.19581e-10 0)
(0.88328 2.41343e-10 0)
(0.88328 5.20453e-10 0)
(0.88328 6.39687e-10 0)
(0.88328 9.99309e-10 0)
(0.88328 1.16023e-09 0)
(0.88328 1.55339e-09 0)
(0.88328 1.02527e-09 0)
(0.88328 3.17923e-10 0)
(2.52318 -2.04818e-09 0)
(2.52318 -6.5474e-10 0)
(2.52318 -1.01805e-09 0)
(2.52318 5.70615e-10 0)
(2.52318 -1.02261e-09 0)
(2.52318 9.94411e-10 0)
(2.52318 -1.05937e-09 0)
(2.52318 1.11848e-09 0)
(2.52318 -1.02521e-09 0)
(2.52318 1.01672e-09 0)
(2.52318 -9.12687e-10 0)
(2.52318 7.29069e-10 0)
(2.52318 -8.05586e-10 0)
(2.52318 2.51596e-10 0)
(2.52318 -8.7257e-10 0)
(2.52318 -5.49476e-10 0)
(2.52318 -1.57364e-09 0)
(2.52318 -1.5157e-09 0)
(2.52318 -3.96162e-09 0)
(2.52318 -4.50706e-09 0)
(4.03643 -3.95102e-09 0)
(4.03643 -2.63699e-09 0)
(4.03643 -1.54796e-09 0)
(4.03643 5.73791e-12 0)
(4.03643 -8.66214e-10 0)
(4.03643 6.34967e-10 0)
(4.03643 -6.31322e-10 0)
(4.03643 8.7241e-10 0)
(4.03643 -3.1941e-10 0)
(4.03643 1.07449e-09 0)
(4.03643 2.61382e-10 0)
(4.03643 1.51109e-09 0)
(4.03643 1.2685e-09 0)
(4.03643 2.63089e-09 0)
(4.03643 3.33443e-09 0)
(4.03643 4.51939e-09 0)
(4.03643 5.84692e-09 0)
(4.03643 6.63928e-09 0)
(4.03643 -2.15908e-09 0)
(4.03643 -6.22436e-09 0)
(5.42302 -5.98434e-09 0)
(5.42302 -4.82848e-09 0)
(5.42302 -2.33403e-09 0)
(5.42302 -5.14439e-10 0)
(5.42302 -9.36154e-10 0)
(5.42302 3.75655e-10 0)
(5.42302 -4.63686e-10 0)
(5.42302 6.68091e-10 0)
(5.42302 -1.94404e-11 0)
(5.42302 9.52983e-10 0)
(5.42302 7.13361e-10 0)
(5.42302 1.62021e-09 0)
(5.42302 1.94756e-09 0)
(5.42302 3.28602e-09 0)
(5.42302 4.71729e-09 0)
(5.42302 5.4999e-09 0)
(5.42302 7.96802e-09 0)
(5.42302 8.04514e-09 0)
(5.42302 -8.03762e-09 0)
(5.42302 -1.3915e-08 0)
(6.68296 -7.69648e-09 0)
(6.68296 -6.98657e-09 0)
(6.68296 -3.1299e-09 0)
(6.68296 -1.10763e-09 0)
(6.68296 -9.77341e-10 0)
(6.68296 2.6102e-11 0)
(6.68296 -2.64988e-10 0)
(6.68296 3.82041e-10 0)
(6.68296 3.27763e-10 0)
(6.68296 7.99928e-10 0)
(6.68296 1.26811e-09 0)
(6.68296 1.84681e-09 0)
(6.68296 2.85041e-09 0)
(6.68296 4.35591e-09 0)
(6.68296 6.74912e-09 0)
(6.68296 7.26543e-09 0)
(6.68296 1.14489e-08 0)
(6.68296 1.12024e-08 0)
(6.68296 -1.23457e-08 0)
(6.68296 -1.93897e-08 0)
(7.81624 -8.91385e-09 0)
(7.81624 -8.69837e-09 0)
(7.81624 -3.81225e-09 0)
(7.81624 -1.62142e-09 0)
(7.81624 -1.03892e-09 0)
(7.81624 -2.88773e-10 0)
(7.81624 -1.47694e-10 0)
(7.81624 1.02543e-10 0)
(7.81624 5.52082e-10 0)
(7.81624 5.95264e-10 0)
(7.81624 1.61488e-09 0)
(7.81624 1.9234e-09 0)
(7.81624 3.34953e-09 0)
(7.81624 5.02934e-09 0)
(7.81624 8.05705e-09 0)
(7.81624 8.01355e-09 0)
(7.81624 1.36024e-08 0)
(7.81624 1.28049e-08 0)
(7.81624 -1.74727e-08 0)
(7.81624 -2.49194e-08 0)
(8.82286 -9.50928e-09 0)
(8.82286 -9.76821e-09 0)
(8.82286 -4.26801e-09 0)
(8.82286 -1.98552e-09 0)
(8.82286 -1.08906e-09 0)
(8.82286 -5.32568e-10 0)
(8.82286 -8.74162e-11 0)
(8.82286 -1.28606e-10 0)
(8.82286 6.78158e-10 0)
(8.82286 4.07364e-10 0)
(8.82286 1.80684e-09 0)
(8.82286 1.96393e-09 0)
(8.82286 3.58612e-09 0)
(8.82286 5.51168e-09 0)
(8.82286 8.93452e-09 0)
(8.82286 8.22978e-09 0)
(8.82286 1.49601e-08 0)
(8.82286 1.35826e-08 0)
(8.82286 -2.22626e-08 0)
(8.82286 -2.9525e-08 0)
(9.70283 -9.42826e-09 0)
(9.70283 -1.00994e-08 0)
(9.70283 -4.41496e-09 0)
(9.70283 -2.15368e-09 0)
(9.70283 -1.10122e-09 0)
(9.70283 -6.83547e-10 0)
(9.70283 -7.01736e-11 0)
(9.70283 -2.8925e-10 0)
(9.70283 7.19976e-10 0)
(9.70283 2.6826e-10 0)
(9.70283 1.86403e-09 0)
(9.70283 2.01308e-09 0)
(9.70283 3.60967e-09 0)
(9.70283 5.86605e-09 0)
(9.70283 9.47177e-09 0)
(9.70283 8.12896e-09 0)
(9.70283 1.56881e-08 0)
(9.70283 1.37532e-08 0)
(9.70283 -2.62327e-08 0)
(9.70283 -3.29098e-08 0)
(10.4561 -8.68896e-09 0)
(10.4561 -9.69851e-09 0)
(10.4561 -4.21059e-09 0)
(10.4561 -2.12442e-09 0)
(10.4561 -1.04202e-09 0)
(10.4561 -7.52814e-10 0)
(10.4561 -6.64738e-11 0)
(10.4561 -3.93727e-10 0)
(10.4561 7.11351e-10 0)
(10.4561 1.71139e-10 0)
(10.4561 1.82637e-09 0)
(10.4561 2.06984e-09 0)
(10.4561 3.4878e-09 0)
(10.4561 6.105e-09 0)
(10.4561 9.74161e-09 0)
(10.4561 7.85573e-09 0)
(10.4561 1.59144e-08 0)
(10.4561 1.34748e-08 0)
(10.4561 -2.90954e-08 0)
(10.4561 -3.49907e-08 0)
(11.0828 -7.38163e-09 0)
(11.0828 -8.65449e-09 0)
(11.0828 -3.67883e-09 0)
(11.0828 -1.91137e-09 0)
(11.0828 -9.08254e-10 0)
(11.0828 -7.4716e-10 0)
(11.0828 -6.42436e-11 0)
(11.0828 -4.45898e-10 0)
(11.0828 6.68242e-10 0)
(11.0828 1.16905e-10 0)
(11.0828 1.71867e-09 0)
(11.0828 2.13378e-09 0)
(11.0828 3.267e-09 0)
(11.0828 6.24133e-09 0)
(11.0828 9.78734e-09 0)
(11.0828 7.5301e-09 0)
(11.0828 1.57575e-08 0)
(11.0828 1.29083e-08 0)
(11.0828 -3.06498e-08 0)
(11.0828 -3.57245e-08 0)
(11.5828 -5.65434e-09 0)
(11.5828 -7.12377e-09 0)
(11.5828 -2.89538e-09 0)
(11.5828 -1.55591e-09 0)
(11.5828 -7.13776e-10 0)
(11.5828 -6.82897e-10 0)
(11.5828 -5.74272e-11 0)
(11.5828 -4.55635e-10 0)
(11.5828 6.02517e-10 0)
(11.5828 9.82235e-11 0)
(11.5828 1.563e-09 0)
(11.5828 2.19102e-09 0)
(11.5828 2.98887e-09 0)
(11.5828 6.27249e-09 0)
(11.5828 9.63274e-09 0)
(11.5828 7.22425e-09 0)
(11.5828 1.53095e-08 0)
(11.5828 1.21811e-08 0)
(11.5828 -3.07917e-08 0)
(11.5828 -3.51431e-08 0)
(11.9561 -3.69448e-09 0)
(11.9561 -5.30767e-09 0)
(11.9561 -1.97507e-09 0)
(11.9561 -1.11972e-09 0)
(11.9561 -4.87125e-10 0)
(11.9561 -5.80996e-10 0)
(11.9561 -4.61158e-11 0)
(11.9561 -4.34974e-10 0)
(11.9561 5.23864e-10 0)
(11.9561 1.04056e-10 0)
(11.9561 1.38034e-09 0)
(11.9561 2.22212e-09 0)
(11.9561 2.68789e-09 0)
(11.9561 6.191e-09 0)
(11.9561 9.29342e-09 0)
(11.9561 6.97387e-09 0)
(11.9561 1.4647e-08 0)
(11.9561 1.13943e-08 0)
(11.9561 -2.94975e-08 0)
(11.9561 -3.33169e-08 0)
(12.2028 -1.71109e-09 0)
(12.2028 -3.42933e-09 0)
(12.2028 -1.05145e-09 0)
(12.2028 -6.72546e-10 0)
(12.2028 -2.63856e-10 0)
(12.2028 -4.65649e-10 0)
(12.2028 -3.27556e-11 0)
(12.2028 -3.98069e-10 0)
(12.2028 4.42251e-10 0)
(12.2028 1.1989e-10 0)
(12.2028 1.19053e-09 0)
(12.2028 2.20514e-09 0)
(12.2028 2.39212e-09 0)
(12.2028 5.98621e-09 0)
(12.2028 8.78338e-09 0)
(12.2028 6.77904e-09 0)
(12.2028 1.38266e-08 0)
(12.2028 1.06103e-08 0)
(12.2028 -2.68346e-08 0)
(12.2028 -3.0355e-08 0)
(12.3229 8.82159e-11 0)
(12.3229 -1.70776e-09 0)
(12.3229 -2.54185e-10 0)
(12.3229 -2.81394e-10 0)
(12.3229 -7.82352e-11 0)
(12.3229 -3.59297e-10 0)
(12.3229 -2.13922e-11 0)
(12.3229 -3.58443e-10 0)
(12.3229 3.63221e-10 0)
(12.3229 1.30273e-10 0)
(12.3229 1.00742e-09 0)
(12.3229 2.11841e-09 0)
(12.3229 2.1145e-09 0)
(12.3229 5.63999e-09 0)
(12.3229 8.1038e-09 0)
(12.3229 6.59022e-09 0)
(12.3229 1.28526e-08 0)
(12.3229 9.81731e-09 0)
(12.3229 -2.29977e-08 0)
(12.3229 -2.64263e-08 0)
(12.3162 1.50691e-09 0)
(12.3162 -3.30949e-10 0)
(12.3162 3.14047e-10 0)
(12.3162 3.66227e-13 0)
(12.3162 5.01481e-11 0)
(12.3162 -2.85466e-10 0)
(12.3162 -4.33634e-12 0)
(12.3162 -3.3613e-10 0)
(12.3162 3.06348e-10 0)
(12.3162 1.11893e-10 0)
(12.3162 8.58455e-10 0)
(12.3162 1.93528e-09 0)
(12.3162 1.88295e-09 0)
(12.3162 5.13446e-09 0)
(12.3162 7.29458e-09 0)
(12.3162 6.35466e-09 0)
(12.3162 1.17552e-08 0)
(12.3162 8.98985e-09 0)
(12.3162 -1.82805e-08 0)
(12.3162 -2.17783e-08 0)
(12.183 2.39168e-09 0)
(12.183 5.64909e-10 0)
(12.183 5.98169e-10 0)
(12.183 1.47823e-10 0)
(12.183 1.10958e-10 0)
(12.183 -2.48917e-10 0)
(12.183 1.56978e-11 0)
(12.183 -3.33595e-10 0)
(12.183 2.69787e-10 0)
(12.183 5.77333e-11 0)
(12.183 7.38904e-10 0)
(12.183 1.64629e-09 0)
(12.183 1.67069e-09 0)
(12.183 4.44384e-09 0)
(12.183 6.31912e-09 0)
(12.183 5.93156e-09 0)
(12.183 1.04033e-08 0)
(12.183 7.94999e-09 0)
(12.183 -1.31946e-08 0)
(12.183 -1.67872e-08 0)
(11.923 2.64208e-09 0)
(11.923 9.38547e-10 0)
(11.923 5.97884e-10 0)
(11.923 1.71013e-10 0)
(11.923 1.18265e-10 0)
(11.923 -2.55659e-10 0)
(11.923 5.58545e-11 0)
(11.923 -3.79071e-10 0)
(11.923 2.64907e-10 0)
(11.923 -9.55913e-11 0)
(11.923 6.23487e-10 0)
(11.923 1.12978e-09 0)
(11.923 1.35334e-09 0)
(11.923 3.32541e-09 0)
(11.923 4.88986e-09 0)
(11.923 4.70461e-09 0)
(11.923 8.0485e-09 0)
(11.923 5.70288e-09 0)
(11.923 -9.11248e-09 0)
(11.923 -1.23438e-08 0)
(11.5364 2.16059e-09 0)
(11.5364 8.28631e-10 0)
(11.5364 3.80853e-10 0)
(11.5364 1.28745e-10 0)
(11.5364 5.63475e-11 0)
(11.5364 -2.04479e-10 0)
(11.5364 6.58982e-11 0)
(11.5364 -2.8176e-10 0)
(11.5364 2.91287e-10 0)
(11.5364 -2.42382e-12 0)
(11.5364 6.94478e-10 0)
(11.5364 1.02636e-09 0)
(11.5364 1.53661e-09 0)
(11.5364 2.99344e-09 0)
(11.5364 4.61239e-09 0)
(11.5364 5.19147e-09 0)
(11.5364 8.16113e-09 0)
(11.5364 6.63741e-09 0)
(11.5364 -2.48074e-09 0)
(11.5364 -6.72232e-09 0)
(11.0232 1.30933e-09 0)
(11.0232 5.64134e-10 0)
(11.0232 8.91854e-11 0)
(11.0232 4.9135e-11 0)
(11.0232 1.01066e-10 0)
(11.0232 -3.10336e-10 0)
(11.0232 2.65969e-10 0)
(11.0232 -5.29693e-10 0)
(11.0232 4.4447e-10 0)
(11.0232 -5.7299e-10 0)
(11.0232 5.49358e-10 0)
(11.0232 -2.78618e-10 0)
(11.0232 6.31647e-10 0)
(11.0232 2.99565e-10 0)
(11.0232 1.4182e-09 0)
(11.0232 4.18925e-10 0)
(11.0232 1.42831e-09 0)
(11.0232 -1.17702e-09 0)
(11.0232 -5.4056e-09 0)
(11.0232 -6.66915e-09 0)
(10.3833 3.14956e-10 0)
(10.3833 1.39906e-10 0)
(10.3833 -6.22381e-12 0)
(10.3833 2.79308e-11 0)
(10.3833 -1.51396e-11 0)
(10.3833 -3.45471e-11 0)
(10.3833 2.64063e-11 0)
(10.3833 -3.81776e-11 0)
(10.3833 1.09802e-10 0)
(10.3833 4.22968e-11 0)
(10.3833 2.51635e-10 0)
(10.3833 2.72837e-10 0)
(10.3833 5.40184e-10 0)
(10.3833 7.54235e-10 0)
(10.3833 1.31966e-09 0)
(10.3833 1.66217e-09 0)
(10.3833 2.50942e-09 0)
(10.3833 2.20897e-09 0)
(10.3833 9.94359e-10 0)
(10.3833 -1.0571e-09 0)
)
;

boundaryField
{
    top
    {
        type            fixedValue;
        value           uniform (10 0 0);
    }
    bottom
    {
        type            fixedValue;
        value           uniform (0 0 0);
    }
    inlet
    {
        type            zeroGradient;
    }
    outlet
    {
        type            zeroGradient;
    }
    frontAndBack
    {
        type            empty;
    }
}


// ************************************************************************* //
