/*--------------------------------*- C++ -*----------------------------------*\
| =========                 |                                                 |
| \\      /  F ield         | OpenFOAM: The Open Source CFD Toolbox           |
|  \\    /   O peration     | Version:  v1706                                 |
|   \\  /    A nd           | Web:      www.OpenFOAM.com                      |
|    \\/     M anipulation  |                                                 |
\*---------------------------------------------------------------------------*/
FoamFile
{
    version     2.0;
    format      ascii;
    class       surfaceScalarField;
    location    "2.3";
    object      phi;
}
// * * * * * * * * * * * * * * * * * * * * * * * * * * * * * * * * * * * * * //

dimensions      [0 3 -1 0 0 0 0];
oriented        oriented;


internalField   nonuniform List<scalar> 
760
(
4.4164e-05
-1.36905e-12
4.4164e-05
6.09037e-14
4.4164e-05
-2.11283e-12
4.4164e-05
2.41839e-12
4.4164e-05
-2.78556e-12
4.4164e-05
3.23739e-12
4.4164e-05
-3.05279e-12
4.4164e-05
3.47627e-12
4.4164e-05
-2.79108e-12
4.4164e-05
3.49632e-12
4.4164e-05
-1.90831e-12
4.4164e-05
3.68398e-12
4.4164e-05
-2.1202e-13
4.4164e-05
4.54004e-12
4.4164e-05
2.84795e-12
4.4164e-05
7.18684e-12
4.4164e-05
7.67452e-12
4.4164e-05
9.75721e-12
4.4164e-05
1.08584e-11
4.16717e-12
0.000126159
-3.25617e-12
0.000126159
-1.3498e-12
0.000126159
-4.01212e-12
0.000126159
3.57039e-12
0.000126159
-4.68978e-12
0.000126159
4.85404e-12
0.000126159
-5.03545e-12
0.000126159
5.05496e-12
0.000126159
-4.74238e-12
0.000126159
4.72249e-12
0.000126159
-3.80483e-12
0.000126159
4.23819e-12
0.000126159
-2.29404e-12
0.000126159
3.78216e-12
0.000126159
-1.97297e-13
0.000126159
4.2996e-12
0.000126159
3.32164e-12
0.000126159
4.53844e-12
0.000126159
1.2872e-11
7.70037e-12
0.000201821
-5.02254e-12
0.000201821
-3.60796e-12
0.000201821
-5.5522e-12
0.000201821
3.66045e-12
0.000201821
-5.63932e-12
0.000201821
5.20031e-12
0.000201821
-5.84061e-12
0.000201821
5.29413e-12
0.000201821
-5.55724e-12
0.000201821
4.63051e-12
0.000201821
-4.83417e-12
0.000201821
3.48623e-12
0.000201821
-4.04553e-12
0.000201821
1.53254e-12
0.000201821
-3.96409e-12
0.000201821
-7.40176e-13
0.000201821
-3.08261e-12
0.000201821
-3.41412e-12
0.000201821
1.49783e-11
1.41245e-11
0.000271151
-6.47842e-12
0.000271151
-5.9446e-12
0.000271151
-6.8683e-12
0.000271151
3.26572e-12
0.000271151
-6.08981e-12
0.000271151
4.97939e-12
0.000271151
-6.02431e-12
0.000271151
4.97887e-12
0.000271151
-5.71675e-12
0.000271151
4.09712e-12
0.000271151
-5.20073e-12
0.000271151
2.51472e-12
0.000271151
-5.07494e-12
0.000271151
-5.2301e-13
0.000271151
-6.84416e-12
0.000271151
-4.88846e-12
0.000271151
-8.07976e-12
0.000271151
-9.80206e-12
0.000271151
1.87223e-11
2.15557e-11
0.000334148
-7.43616e-12
0.000334148
-7.89154e-12
0.000334148
-7.88646e-12
0.000334148
2.63574e-12
0.000334148
-6.18095e-12
0.000334148
4.44606e-12
0.000334148
-5.7911e-12
0.000334148
4.37193e-12
0.000334148
-5.42169e-12
0.000334148
3.38749e-12
0.000334148
-5.04324e-12
0.000334148
1.61557e-12
0.000334148
-5.3883e-12
0.000334148
-1.99199e-12
0.000334148
-8.53966e-12
0.000334148
-7.52495e-12
0.000334148
-1.09253e-11
0.000334148
-1.36212e-11
0.000334148
2.45619e-11
3.02463e-11
0.000390812
-7.81624e-12
0.000390812
-9.13874e-12
0.000390812
-8.50021e-12
0.000390812
1.93959e-12
0.000390812
-5.98084e-12
0.000390812
3.7301e-12
0.000390812
-5.27e-12
0.000390812
3.5784e-12
0.000390812
-4.82663e-12
0.000390812
2.56157e-12
0.000390812
-4.54702e-12
0.000390812
7.63091e-13
0.000390812
-5.24742e-12
0.000390812
-3.06525e-12
0.000390812
-9.45472e-12
0.000390812
-9.18037e-12
0.000390812
-1.23536e-11
0.000390812
-1.56706e-11
0.000390812
3.11514e-11
3.91779e-11
0.000441143
-7.63408e-12
0.000441143
-9.51786e-12
0.000441143
-8.65813e-12
0.000441143
1.3389e-12
0.000441143
-5.56747e-12
0.000441143
2.96943e-12
0.000441143
-4.58872e-12
0.000441143
2.71728e-12
0.000441143
-4.07762e-12
0.000441143
1.70119e-12
0.000441143
-3.87551e-12
0.000441143
-2.88303e-14
0.000441143
-4.85976e-12
0.000441143
-3.85763e-12
0.000441143
-9.87427e-12
0.000441143
-1.02129e-11
0.000441143
-1.28876e-11
0.000441143
-1.65116e-11
0.000441143
3.75485e-11
4.76303e-11
0.000485141
-6.97624e-12
0.000485141
-9.01029e-12
0.000485141
-8.35271e-12
0.000485141
9.36509e-13
0.000485141
-4.9964e-12
0.000485141
2.25674e-12
0.000485141
-3.83386e-12
0.000485141
1.86839e-12
0.000485141
-3.27401e-12
0.000485141
8.59507e-13
0.000485141
-3.14222e-12
0.000485141
-7.57648e-13
0.000485141
-4.3701e-12
0.000485141
-4.46554e-12
0.000485141
-9.9984e-12
0.000485141
-1.0894e-11
0.000485141
-1.29306e-11
0.000485141
-1.66153e-11
0.000485141
4.30024e-11
5.49807e-11
0.000522807
-5.965e-12
0.000522807
-7.72236e-12
0.000522807
-7.62486e-12
0.000522807
7.67311e-13
0.000522807
-4.30651e-12
0.000522807
1.63694e-12
0.000522807
-3.05476e-12
0.000522807
1.07346e-12
0.000522807
-2.47113e-12
0.000522807
6.35274e-14
0.000522807
-2.41184e-12
0.000522807
-1.42854e-12
0.000522807
-3.86107e-12
0.000522807
-4.95982e-12
0.000522807
-9.94193e-12
0.000522807
-1.13979e-11
0.000522807
-1.27484e-11
0.000522807
-1.63339e-11
0.000522807
4.69525e-11
6.07137e-11
0.00055414
-4.73692e-12
0.00055414
-5.85523e-12
0.00055414
-6.56042e-12
0.00055414
8.02796e-13
0.00055414
-3.52969e-12
0.00055414
1.11377e-12
0.00055414
-2.27458e-12
0.00055414
3.43822e-13
0.00055414
-1.69254e-12
0.00055414
-6.79635e-13
0.00055414
-1.71338e-12
0.00055414
-2.05202e-12
0.00055414
-3.36979e-12
0.00055414
-5.39026e-12
0.00055414
-9.75977e-12
0.00055414
-1.18232e-11
0.00055414
-1.24987e-11
0.00055414
-1.59144e-11
0.00055414
4.90064e-11
6.44192e-11
0.00057914
-3.4242e-12
0.00057914
-3.66637e-12
0.00057914
-5.28053e-12
0.00057914
9.67504e-13
0.00057914
-2.6994e-12
0.00057914
6.63124e-13
0.00057914
-1.50365e-12
0.00057914
-3.2728e-13
0.00057914
-9.44296e-13
0.00057914
-1.3731e-12
0.00057914
-1.05496e-12
0.00057914
-2.63889e-12
0.00057914
-2.90554e-12
0.00057914
-5.78811e-12
0.00057914
-9.47132e-12
0.00057914
-1.22139e-11
0.00057914
-1.22617e-11
0.00057914
-1.55124e-11
0.00057914
4.89272e-11
6.57939e-11
0.000597807
-2.14509e-12
0.000597807
-1.43303e-12
0.000597807
-3.92687e-12
0.000597807
1.16237e-12
0.000597807
-1.85572e-12
0.000597807
2.49418e-13
0.000597807
-7.50289e-13
0.000597807
-9.51284e-13
0.000597807
-2.27238e-13
0.000597807
-2.01954e-12
0.000597807
-4.35772e-13
0.000597807
-3.19258e-12
0.000597807
-2.46225e-12
0.000597807
-6.16271e-12
0.000597807
-9.07372e-12
0.000597807
-1.25677e-11
0.000597807
-1.20553e-11
0.000597807
-1.51923e-11
0.000597807
4.66441e-11
6.46621e-11
0.000610141
-1.00168e-12
0.000610141
5.79065e-13
0.000610141
-2.64264e-12
0.000610141
1.28982e-12
0.000610141
-1.04455e-12
0.000610141
-1.57885e-13
0.000610141
-2.86506e-14
0.000610141
-1.53168e-12
0.000610141
4.53338e-13
0.000610141
-2.61107e-12
0.000610141
1.45031e-13
0.000610141
-3.70065e-12
0.000610141
-2.02657e-12
0.000610141
-6.49484e-12
0.000610141
-8.54687e-12
0.000610141
-1.28333e-11
0.000610141
-1.1835e-11
0.000610141
-1.49157e-11
0.000610141
4.22821e-11
6.10141e-11
0.000616143
-7.20704e-14
0.000616143
2.14586e-12
0.000616143
-1.55365e-12
0.000616143
1.27775e-12
0.000616143
-3.14569e-13
0.000616143
-5.6936e-13
0.000616143
6.3657e-13
0.000616143
-2.05292e-12
0.000616143
1.08089e-12
0.000616143
-3.11967e-12
0.000616143
6.82185e-13
0.000616143
-4.1254e-12
0.000616143
-1.58109e-12
0.000616143
-6.72602e-12
0.000616143
-7.85018e-12
0.000616143
-1.28974e-11
0.000616143
-1.14803e-11
0.000616143
-1.45169e-11
0.000616143
3.62121e-11
5.50692e-11
0.000615812
5.81653e-13
0.000615812
3.10316e-12
0.000615812
-7.4686e-13
0.000615812
1.09673e-12
0.000615812
2.88326e-13
0.000615812
-9.65777e-13
0.000615812
1.20866e-12
0.000615812
-2.47377e-12
0.000615812
1.62414e-12
0.000615812
-3.49132e-12
0.000615812
1.16142e-12
0.000615812
-4.39701e-12
0.000615812
-1.10396e-12
0.000615812
-6.74933e-12
0.000615812
-6.91472e-12
0.000615812
-1.25662e-11
0.000615812
-1.07727e-11
0.000615812
-1.36851e-11
0.000615812
2.90857e-11
4.7338e-11
0.000609148
9.32e-13
0.000609148
3.37711e-12
0.000609148
-2.56217e-13
0.000609148
7.7025e-13
0.000609148
7.24861e-13
0.000609148
-1.29411e-12
0.000609148
1.63826e-12
0.000609148
-2.72508e-12
0.000609148
2.03464e-12
0.000609148
-3.64412e-12
0.000609148
1.55683e-12
0.000609148
-4.41166e-12
0.000609148
-5.69922e-13
0.000609148
-6.40832e-12
0.000609148
-5.64309e-12
0.000609148
-1.15614e-11
0.000609148
-9.40055e-12
0.000609148
-1.19822e-11
0.000609148
2.18474e-11
3.86605e-11
0.000596151
9.44195e-13
0.000596151
2.99982e-12
0.000596151
-4.95943e-14
0.000596151
3.68715e-13
0.000596151
9.8007e-13
0.000596151
-1.48591e-12
0.000596151
1.89403e-12
0.000596151
-2.73447e-12
0.000596151
2.28778e-12
0.000596151
-3.48922e-12
0.000596151
1.88286e-12
0.000596151
-4.03269e-12
0.000596151
1.23179e-13
0.000596151
-5.45514e-12
0.000596151
-3.77951e-12
0.000596151
-9.38085e-12
0.000596151
-6.69479e-12
0.000596151
-8.54951e-12
0.000596151
1.60442e-11
3.03872e-11
0.000576821
6.45886e-13
0.000576821
2.12291e-12
0.000576821
-3.09513e-14
0.000576821
-1.82865e-15
0.000576821
1.00444e-12
0.000576821
-1.44462e-12
0.000576821
1.85575e-12
0.000576821
-2.40407e-12
0.000576821
2.22656e-12
0.000576821
-2.9453e-12
0.000576821
1.95324e-12
0.000576821
-3.23634e-12
0.000576821
7.38624e-13
0.000576821
-4.00331e-12
0.000576821
-1.74323e-12
0.000576821
-6.4107e-12
0.000576821
-3.43078e-12
0.000576821
-4.27722e-12
0.000576821
1.15182e-11
2.27828e-11
0.000551159
7.00444e-14
0.000551159
1.09487e-12
0.000551159
-7.00784e-14
0.000551159
-2.2299e-13
0.000551159
8.31506e-13
0.000551159
-1.12875e-12
0.000551159
1.55671e-12
0.000551159
-1.7227e-12
0.000551159
1.91912e-12
0.000551159
-1.98156e-12
0.000551159
1.91172e-12
0.000551159
-1.89807e-12
0.000551159
1.56619e-12
0.000551159
-1.70822e-12
0.000551159
1.04357e-12
0.000551159
-1.79256e-12
0.000551159
1.69451e-12
0.000551159
2.31835e-12
0.000551159
1.0777e-11
1.74696e-11
0.000519164
0.000519164
0.000519164
0.000519164
0.000519164
0.000519164
0.000519164
0.000519164
0.000519164
0.000519164
0.000519164
0.000519164
0.000519164
0.000519164
0.000519164
0.000519164
0.000519164
0.000519164
0.000519164
)
;

boundaryField
{
    top
    {
        type            calculated;
        value           uniform 0;
    }
    bottom
    {
        type            calculated;
        value           uniform 0;
    }
    inlet
    {
        type            calculated;
        value           nonuniform List<scalar> 
20
(
-4.4164e-05
-0.000126159
-0.000201821
-0.000271151
-0.000334148
-0.000390812
-0.000441143
-0.000485141
-0.000522807
-0.00055414
-0.00057914
-0.000597807
-0.000610141
-0.000616143
-0.000615812
-0.000609148
-0.000596151
-0.000576821
-0.000551159
-0.000519164
)
;
    }
    outlet
    {
        type            calculated;
        value           nonuniform List<scalar> 
20
(
4.4164e-05
0.000126159
0.000201821
0.000271151
0.000334148
0.000390812
0.000441143
0.000485141
0.000522807
0.00055414
0.00057914
0.000597807
0.000610141
0.000616143
0.000615812
0.000609148
0.000596151
0.000576821
0.000551159
0.000519164
)
;
    }
    frontAndBack
    {
        type            empty;
        value           nonuniform 0();
    }
}


// ************************************************************************* //
