/*--------------------------------*- C++ -*----------------------------------*\
| =========                 |                                                 |
| \\      /  F ield         | OpenFOAM: The Open Source CFD Toolbox           |
|  \\    /   O peration     | Version:  v1706                                 |
|   \\  /    A nd           | Web:      www.OpenFOAM.com                      |
|    \\/     M anipulation  |                                                 |
\*---------------------------------------------------------------------------*/
FoamFile
{
    version     2.0;
    format      ascii;
    class       volVectorField;
    location    "2.3";
    object      U;
}
// * * * * * * * * * * * * * * * * * * * * * * * * * * * * * * * * * * * * * //

dimensions      [0 1 -1 0 0 0 0];


internalField   nonuniform List<vector> 
400
(
(0.883279 -5.4081e-10 0)
(0.883279 -7.90106e-11 0)
(0.88328 -4.91084e-10 0)
(0.88328 4.73252e-10 0)
(0.88328 -6.23945e-10 0)
(0.88328 5.75589e-10 0)
(0.88328 -6.89779e-10 0)
(0.88328 5.37814e-10 0)
(0.88328 -6.90626e-10 0)
(0.88328 3.9344e-10 0)
(0.88328 -6.98132e-10 0)
(0.88328 1.07186e-10 0)
(0.88328 -8.12437e-10 0)
(0.88328 -4.04256e-10 0)
(0.88328 -1.22873e-09 0)
(0.88328 -1.30635e-09 0)
(0.883279 -1.88973e-09 0)
(0.883279 -2.26827e-09 0)
(0.883279 -1.84759e-09 0)
(0.883279 -1.31092e-09 0)
(2.52318 -2.31267e-09 0)
(2.52318 -3.32648e-10 0)
(2.52318 -3.42474e-09 0)
(2.52318 3.6648e-09 0)
(2.52318 -4.36641e-09 0)
(2.52318 4.94469e-09 0)
(2.52318 -4.76196e-09 0)
(2.52318 5.27925e-09 0)
(2.52318 -4.39554e-09 0)
(2.52318 5.22625e-09 0)
(2.52318 -3.15214e-09 0)
(2.52318 5.34804e-09 0)
(2.52318 -7.77435e-10 0)
(2.52318 6.25536e-09 0)
(2.52318 3.3586e-09 0)
(2.52318 9.54067e-09 0)
(2.52318 1.00512e-08 0)
(2.52318 1.28956e-08 0)
(2.52318 1.7797e-08 0)
(2.52318 9.11005e-09 0)
(4.03643 -4.06473e-09 0)
(4.03643 -2.49578e-09 0)
(4.03643 -4.43637e-09 0)
(4.03643 3.2345e-09 0)
(4.03643 -4.75503e-09 0)
(4.03643 4.44596e-09 0)
(4.03643 -5.01879e-09 0)
(4.03643 4.4784e-09 0)
(4.03643 -4.83424e-09 0)
(4.03643 3.8439e-09 0)
(4.03643 -4.33498e-09 0)
(4.03643 2.70061e-09 0)
(4.03643 -3.87215e-09 0)
(4.03643 7.20666e-10 0)
(4.03643 -4.22606e-09 0)
(4.03643 -1.93077e-09 0)
(4.03643 -4.37191e-09 0)
(4.03643 -5.02548e-09 0)
(4.03643 7.91533e-09 0)
(4.03643 7.08747e-09 0)
(5.42302 -5.81248e-09 0)
(5.42302 -4.80171e-09 0)
(5.42302 -6.25202e-09 0)
(5.42302 3.53912e-09 0)
(5.42302 -5.92161e-09 0)
(5.42302 5.19198e-09 0)
(5.42302 -5.98626e-09 0)
(5.42302 5.2503e-09 0)
(5.42302 -5.67057e-09 0)
(5.42302 4.49519e-09 0)
(5.42302 -4.99815e-09 0)
(5.42302 3.19139e-09 0)
(5.42302 -4.39965e-09 0)
(5.42302 8.52852e-10 0)
(5.42302 -4.95112e-09 0)
(5.42302 -2.12295e-09 0)
(5.42302 -4.57736e-09 0)
(5.42302 -5.30352e-09 0)
(5.42302 1.83418e-08 0)
(5.42302 1.92604e-08 0)
(6.68295 -7.07312e-09 0)
(6.68295 -7.04374e-09 0)
(6.68295 -7.4127e-09 0)
(6.68295 2.91807e-09 0)
(6.68295 -6.12108e-09 0)
(6.68295 4.68078e-09 0)
(6.68295 -5.87369e-09 0)
(6.68295 4.63789e-09 0)
(6.68295 -5.52717e-09 0)
(6.68295 3.70141e-09 0)
(6.68295 -5.07801e-09 0)
(6.68295 2.02715e-09 0)
(6.68295 -5.19064e-09 0)
(6.68295 -1.28194e-09 0)
(6.68295 -7.64945e-09 0)
(6.68295 -6.22763e-09 0)
(6.68295 -9.42842e-09 0)
(6.68295 -1.15912e-08 0)
(6.68295 2.18364e-08 0)
(6.68295 2.62645e-08 0)
(7.81623 -7.7725e-09 0)
(7.81623 -8.68186e-09 0)
(7.81623 -8.2842e-09 0)
(7.81623 2.25521e-09 0)
(7.81623 -6.09926e-09 0)
(7.81623 4.07753e-09 0)
(7.81623 -5.52052e-09 0)
(7.81623 3.968e-09 0)
(7.81623 -5.09869e-09 0)
(7.81623 2.97101e-09 0)
(7.81623 -4.75388e-09 0)
(7.81623 1.20211e-09 0)
(7.81623 -5.25508e-09 0)
(7.81623 -2.47496e-09 0)
(7.81623 -8.88195e-09 0)
(7.81623 -8.23422e-09 0)
(7.81623 -1.14367e-08 0)
(7.81623 -1.43626e-08 0)
(7.81623 2.82899e-08 0)
(7.81623 3.52855e-08 0)
(8.82286 -7.87944e-09 0)
(8.82286 -9.50536e-09 0)
(8.82286 -8.70301e-09 0)
(8.82286 1.60393e-09 0)
(8.82286 -5.81276e-09 0)
(8.82286 3.34921e-09 0)
(8.82286 -4.93265e-09 0)
(8.82286 3.15684e-09 0)
(8.82286 -4.43689e-09 0)
(8.82286 2.14906e-09 0)
(8.82286 -4.17285e-09 0)
(8.82286 4.10542e-10 0)
(8.82286 -4.97597e-09 0)
(8.82286 -3.36107e-09 0)
(8.82286 -9.50489e-09 0)
(8.82286 -9.4921e-09 0)
(8.82286 -1.23462e-08 0)
(8.82286 -1.57348e-08 0)
(8.82286 3.48876e-08 0)
(8.82286 4.40551e-08 0)
(9.70282 -7.44992e-09 0)
(9.70282 -9.42742e-09 0)
(9.70282 -8.63984e-09 0)
(9.70282 1.10353e-09 0)
(9.70282 -5.33125e-09 0)
(9.70282 2.61932e-09 0)
(9.70282 -4.22297e-09 0)
(9.70282 2.31253e-09 0)
(9.70282 -3.66623e-09 0)
(9.70282 1.31317e-09 0)
(9.70282 -3.46967e-09 0)
(9.70282 -3.26207e-10 0)
(9.70282 -4.52204e-09 0)
(9.70282 -4.02297e-09 0)
(9.70282 -9.73654e-09 0)
(9.70282 -1.02718e-08 0)
(9.70282 -1.25621e-08 0)
(9.70282 -1.61384e-08 0)
(9.70282 4.09022e-08 0)
(9.70282 5.20181e-08 0)
(10.4561 -6.59171e-09 0)
(10.4561 -8.49767e-09 0)
(10.4561 -8.11119e-09 0)
(10.4561 8.23946e-10 0)
(10.4561 -4.69891e-09 0)
(10.4561 1.95685e-09 0)
(10.4561 -3.45868e-09 0)
(10.4561 1.49568e-09 0)
(10.4561 -2.86383e-09 0)
(10.4561 5.03192e-10 0)
(10.4561 -2.73492e-09 0)
(10.4561 -1.01002e-09 0)
(10.4561 -4.00778e-09 0)
(10.4561 -4.54496e-09 0)
(10.4561 -9.73572e-09 0)
(10.4561 -1.0799e-08 0)
(10.4561 -1.24228e-08 0)
(10.4561 -1.59863e-08 0)
(10.4561 4.56819e-08 0)
(10.4561 5.86088e-08 0)
(11.0828 -5.43786e-09 0)
(11.0828 -6.87574e-09 0)
(11.0828 -7.18431e-09 0)
(11.0828 7.68074e-10 0)
(11.0828 -3.95185e-09 0)
(11.0828 1.38743e-09 0)
(11.0828 -2.67511e-09 0)
(11.0828 7.34353e-10 0)
(11.0828 -2.07035e-09 0)
(11.0828 -2.62902e-10 0)
(11.0828 -2.01658e-09 0)
(11.0828 -1.64873e-09 0)
(11.0828 -3.49584e-09 0)
(11.0828 -4.98919e-09 0)
(11.0828 -9.59247e-09 0)
(11.0828 -1.12171e-08 0)
(11.0828 -1.2152e-08 0)
(11.0828 -1.55936e-08 0)
(11.0828 4.8741e-08 0)
(11.0828 6.33623e-08 0)
(11.5828 -4.1268e-09 0)
(11.5828 -4.79667e-09 0)
(11.5828 -5.96922e-09 0)
(11.5828 8.82875e-10 0)
(11.5828 -3.13121e-09 0)
(11.5828 9.01965e-10 0)
(11.5828 -1.89157e-09 0)
(11.5828 3.2632e-11 0)
(11.5828 -1.3027e-09 0)
(11.5828 -9.81296e-10 0)
(11.5828 -1.33425e-09 0)
(11.5828 -2.25155e-09 0)
(11.5828 -3.01113e-09 0)
(11.5828 -5.39536e-09 0)
(11.5828 -9.34569e-09 0)
(11.5828 -1.15991e-08 0)
(11.5828 -1.18746e-08 0)
(11.5828 -1.51625e-08 0)
(11.5828 4.97588e-08 0)
(11.5828 6.5922e-08 0)
(11.9561 -2.78736e-09 0)
(11.9561 -2.53331e-09 0)
(11.9561 -4.60497e-09 0)
(11.9561 1.07888e-09 0)
(11.9561 -2.27768e-09 0)
(11.9561 4.71381e-10 0)
(11.9561 -1.121e-09 0)
(11.9561 -6.16834e-10 0)
(11.9561 -5.66679e-10 0)
(11.9561 -1.65315e-09 0)
(11.9561 -6.94452e-10 0)
(11.9561 -2.82403e-09 0)
(11.9561 -2.55727e-09 0)
(11.9561 -5.78326e-09 0)
(11.9561 -9.00569e-09 0)
(11.9561 -1.19674e-08 0)
(11.9561 -1.16454e-08 0)
(11.9561 -1.48033e-08 0)
(11.9561 4.85724e-08 0)
(11.9561 6.60437e-08 0)
(12.2028 -1.53325e-09 0)
(12.2028 -3.62333e-10 0)
(12.2028 -3.24189e-09 0)
(12.2028 1.25477e-09 0)
(12.2028 -1.43358e-09 0)
(12.2028 6.30983e-11 0)
(12.2028 -3.7756e-10 0)
(12.2028 -1.22024e-09 0)
(12.2028 1.32267e-10 0)
(12.2028 -2.27452e-09 0)
(12.2028 -9.88274e-11 0)
(12.2028 -3.36074e-09 0)
(12.2028 -2.1272e-09 0)
(12.2028 -6.14845e-09 0)
(12.2028 -8.56409e-09 0)
(12.2028 -1.22989e-08 0)
(12.2028 -1.14602e-08 0)
(12.2028 -1.45449e-08 0)
(12.2028 4.5199e-08 0)
(12.2028 6.36284e-08 0)
(12.3229 -4.5819e-10 0)
(12.3229 1.46575e-09 0)
(12.3229 -2.02172e-09 0)
(12.3229 1.323e-09 0)
(12.3229 -6.5124e-10 0)
(12.3229 -3.43726e-10 0)
(12.3229 3.17269e-10 0)
(12.3229 -1.7703e-09 0)
(12.3229 7.81948e-10 0)
(12.3229 -2.82588e-09 0)
(12.3229 4.50426e-10 0)
(12.3229 -3.83446e-09 0)
(12.3229 -1.70517e-09 0)
(12.3229 -6.44886e-09 0)
(12.3229 -7.98721e-09 0)
(12.3229 -1.25059e-08 0)
(12.3229 -1.12309e-08 0)
(12.3229 -1.42681e-08 0)
(12.3229 3.98897e-08 0)
(12.3229 5.87767e-08 0)
(12.3162 3.64275e-10 0)
(12.3162 2.75176e-09 0)
(12.3162 -1.05648e-09 0)
(12.3162 1.23003e-09 0)
(12.3162 1.86527e-11 0)
(12.3162 -7.45842e-10 0)
(12.3162 9.3271e-10 0)
(12.3162 -2.2395e-09 0)
(12.3162 1.35927e-09 0)
(12.3162 -3.26622e-09 0)
(12.3162 9.44402e-10 0)
(12.3162 -4.19086e-09 0)
(12.3162 -1.27007e-09 0)
(12.3162 -6.60049e-09 0)
(12.3162 -7.21761e-09 0)
(12.3162 -1.24323e-08 0)
(12.3162 -1.07853e-08 0)
(12.3162 -1.37317e-08 0)
(12.3162 3.31506e-08 0)
(12.3162 5.18412e-08 0)
(12.183 8.89888e-10 0)
(12.183 3.36501e-09 0)
(12.183 -4.08721e-10 0)
(12.183 9.71071e-10 0)
(12.183 5.29052e-10 0)
(12.183 -1.10458e-09 0)
(12.183 1.41624e-09 0)
(12.183 -2.56816e-09 0)
(12.183 1.80992e-09 0)
(12.183 -3.52446e-09 0)
(12.183 1.34177e-09 0)
(12.183 -4.34991e-09 0)
(12.183 -8.32241e-10 0)
(12.183 -6.50082e-09 0)
(12.183 -6.2357e-09 0)
(12.183 -1.19193e-08 0)
(12.183 -9.98168e-09 0)
(12.183 -1.27009e-08 0)
(12.183 2.56556e-08 0)
(12.183 4.34226e-08 0)
(11.923 1.02858e-09 0)
(11.923 3.32055e-09 0)
(11.923 -8.67996e-11 0)
(11.923 5.88352e-10 0)
(11.923 9.19931e-10 0)
(11.923 -1.40182e-09 0)
(11.923 1.85471e-09 0)
(11.923 -2.74485e-09 0)
(11.923 2.27874e-09 0)
(11.923 -3.54614e-09 0)
(11.923 1.89748e-09 0)
(11.923 -4.09657e-09 0)
(11.923 8.95543e-11 0)
(11.923 -5.56671e-09 0)
(11.923 -4.06742e-09 0)
(11.923 -9.59063e-09 0)
(11.923 -6.68218e-09 0)
(11.923 -8.56535e-09 0)
(11.923 2.06409e-08 0)
(11.923 3.57959e-08 0)
(11.5364 1.02985e-09 0)
(11.5364 2.47202e-09 0)
(11.5364 4.80801e-12 0)
(11.5364 1.94695e-10 0)
(11.5364 8.26248e-10 0)
(11.5364 -1.35444e-09 0)
(11.5364 1.53485e-09 0)
(11.5364 -2.41091e-09 0)
(11.5364 1.76578e-09 0)
(11.5364 -3.14854e-09 0)
(11.5364 1.20835e-09 0)
(11.5364 -3.89595e-09 0)
(11.5364 -7.16623e-10 0)
(11.5364 -5.76698e-09 0)
(11.5364 -4.94345e-09 0)
(11.5364 -1.05881e-08 0)
(11.5364 -9.60663e-09 0)
(11.5364 -1.19134e-08 0)
(11.5364 7.53485e-09 0)
(11.5364 2.25289e-08 0)
(11.0232 1.78899e-10 0)
(11.0232 1.823e-09 0)
(11.0232 -1.1477e-10 0)
(11.0232 -1.50259e-10 0)
(11.0232 1.15721e-09 0)
(11.0232 -1.50233e-09 0)
(11.0232 2.18448e-09 0)
(11.0232 -2.38985e-09 0)
(11.0232 2.73782e-09 0)
(11.0232 -2.74878e-09 0)
(11.0232 2.8139e-09 0)
(11.0232 -2.50649e-09 0)
(11.0232 2.41795e-09 0)
(11.0232 -1.9935e-09 0)
(11.0232 1.91688e-09 0)
(11.0232 -1.60706e-09 0)
(11.0232 3.88307e-09 0)
(11.0232 4.73249e-09 0)
(11.0232 1.72373e-08 0)
(11.0232 2.33519e-08 0)
(10.3833 3.03605e-10 0)
(10.3833 2.87321e-10 0)
(10.3833 1.2721e-11 0)
(10.3833 -8.15373e-11 0)
(10.3833 1.34015e-10 0)
(10.3833 -3.01318e-10 0)
(10.3833 2.2011e-10 0)
(10.3833 -4.64802e-10 0)
(10.3833 1.91547e-10 0)
(10.3833 -6.46706e-10 0)
(10.3833 -4.39846e-11 0)
(10.3833 -9.50689e-10 0)
(10.3833 -6.30079e-10 0)
(10.3833 -1.69057e-09 0)
(10.3833 -1.92141e-09 0)
(10.3833 -3.48545e-09 0)
(10.3833 -4.22256e-09 0)
(10.3833 -4.8686e-09 0)
(10.3833 -1.8504e-09 0)
(10.3833 3.83979e-09 0)
)
;

boundaryField
{
    top
    {
        type            fixedValue;
        value           uniform (10 0 0);
    }
    bottom
    {
        type            fixedValue;
        value           uniform (0 0 0);
    }
    inlet
    {
        type            zeroGradient;
    }
    outlet
    {
        type            zeroGradient;
    }
    frontAndBack
    {
        type            empty;
    }
}


// ************************************************************************* //
