/*--------------------------------*- C++ -*----------------------------------*\
| =========                 |                                                 |
| \\      /  F ield         | OpenFOAM: The Open Source CFD Toolbox           |
|  \\    /   O peration     | Version:  v1706                                 |
|   \\  /    A nd           | Web:      www.OpenFOAM.com                      |
|    \\/     M anipulation  |                                                 |
\*---------------------------------------------------------------------------*/
FoamFile
{
    version     2.0;
    format      ascii;
    class       surfaceScalarField;
    location    "0.8";
    object      phi;
}
// * * * * * * * * * * * * * * * * * * * * * * * * * * * * * * * * * * * * * //

dimensions      [0 3 -1 0 0 0 0];
oriented        oriented;


internalField   nonuniform List<scalar> 
760
(
4.414e-05
1.05708e-10
4.41399e-05
7.69154e-11
4.414e-05
-6.63933e-11
4.414e-05
-5.70596e-12
4.414e-05
-8.43768e-12
4.414e-05
6.35673e-12
4.414e-05
4.03009e-12
4.414e-05
6.47805e-12
4.414e-05
-4.03423e-12
4.414e-05
-3.09362e-12
4.414e-05
-7.20773e-12
4.414e-05
-7.8679e-12
4.414e-05
-1.22188e-11
4.414e-05
-3.53695e-12
4.414e-05
-3.16989e-12
4.414e-05
9.99141e-12
4.414e-05
5.22309e-12
4.414e-05
2.33894e-11
4.41399e-05
3.71676e-11
-4.84024e-11
0.000126088
3.12522e-10
0.000126088
2.56405e-10
0.000126088
-1.52527e-10
0.000126088
-2.43697e-11
0.000126088
-1.55541e-11
0.000126088
1.62466e-11
0.000126088
1.14704e-11
0.000126088
1.76796e-11
0.000126088
-2.53948e-13
0.000126088
1.73455e-13
0.000126088
-1.40571e-11
0.000126088
-1.47824e-11
0.000126088
-2.78207e-11
0.000126088
-4.74177e-12
0.000126088
-5.08675e-12
0.000126088
2.9075e-11
0.000126088
-3.9132e-12
0.000126088
5.67264e-11
0.000126088
1.07063e-10
-1.12389e-10
0.000201705
5.63795e-10
0.000201704
5.08e-10
0.000201704
-2.1078e-10
0.000201704
-4.96968e-11
0.000201704
-1.61279e-11
0.000201704
2.49329e-11
0.000201704
1.90446e-11
0.000201704
2.61848e-11
0.000201704
5.12118e-12
0.000201704
5.22573e-12
0.000201704
-1.8286e-11
0.000201704
-1.72229e-11
0.000201704
-4.03852e-11
0.000201704
-4.69747e-12
0.000201704
-1.08667e-11
0.000201704
4.83707e-11
0.000201704
-2.81595e-11
0.000201704
9.91181e-11
0.000201704
2.00491e-10
-1.63411e-10
0.000270991
8.17543e-10
0.000270991
7.94011e-10
0.000270991
-2.22836e-10
0.000270991
-7.07682e-11
0.000270991
-1.04859e-11
0.000270991
3.34036e-11
0.000270991
2.73297e-11
0.000270991
3.12009e-11
0.000270991
1.0033e-11
0.000270991
1.14458e-11
0.000270991
-1.90808e-11
0.000270991
-1.52426e-11
0.000270991
-4.93944e-11
0.000270991
-5.05985e-12
0.000270991
-2.10715e-11
0.000270991
6.57593e-11
0.000270991
-6.09962e-11
0.000270991
1.4389e-10
0.000270991
3.10105e-10
-1.94947e-10
0.000333949
1.03659e-09
0.000333949
1.07381e-09
0.000333949
-1.85978e-10
0.000333949
-7.92339e-11
0.000333949
2.75588e-12
0.000333949
4.34797e-11
0.000333949
3.70452e-11
0.000333949
3.47278e-11
0.000333949
1.41931e-11
0.000333949
1.70953e-11
0.000333949
-1.8885e-11
0.000333949
-1.21549e-11
0.000333949
-5.59789e-11
0.000333949
-4.42534e-12
0.000333949
-3.23487e-11
0.000333949
8.21424e-11
0.000333949
-9.75654e-11
0.000333949
1.82587e-10
0.000333949
4.22665e-10
-2.05162e-10
0.000390579
1.19167e-09
0.000390579
1.3094e-09
0.000390579
-1.04881e-10
0.000390579
-6.98818e-11
0.000390579
2.3884e-11
0.000390579
5.59364e-11
0.000390579
4.82951e-11
0.000390579
3.75871e-11
0.000390579
1.76875e-11
0.000390579
2.17746e-11
0.000390579
-1.82221e-11
0.000390579
-9.136e-12
0.000390579
-6.05165e-11
0.000390579
-2.79135e-12
0.000390579
-4.29218e-11
0.000390579
9.67474e-11
0.000390579
-1.32458e-10
0.000390579
2.10047e-10
0.000390579
5.25887e-10
-1.93842e-10
0.000440882
1.26424e-09
0.000440882
1.47035e-09
0.000440882
8.70741e-12
0.000440882
-4.15001e-11
0.000440882
5.22396e-11
0.000440882
7.0574e-11
0.000440882
6.0506e-11
0.000440882
3.99041e-11
0.000440882
2.03261e-11
0.000440882
2.50878e-11
0.000440882
-1.72204e-11
0.000440882
-6.6361e-12
0.000440882
-6.3063e-11
0.000440882
-5.80064e-13
0.000440882
-5.17332e-11
0.000440882
1.07993e-10
0.000440882
-1.61087e-10
0.000440882
2.24434e-10
0.000440882
6.09247e-10
-1.63175e-10
0.000484859
1.24711e-09
0.000484859
1.53713e-09
0.000484859
1.39035e-10
0.000484859
3.20747e-12
0.000484859
8.59394e-11
0.000484859
8.63406e-11
0.000484859
7.26905e-11
0.000484859
4.14572e-11
0.000484859
2.19378e-11
0.000484859
2.68187e-11
0.000484859
-1.58231e-11
0.000484859
-4.74238e-12
0.000484859
-6.34817e-11
0.000484859
1.72645e-12
0.000484859
-5.80034e-11
0.000484859
1.1426e-10
0.000484859
-1.8031e-10
0.000484859
2.26117e-10
0.000484859
6.6464e-10
-1.17294e-10
0.00052251
1.14443e-09
0.00052251
1.50324e-09
0.00052251
2.69388e-10
0.00052251
5.84158e-11
0.00052251
1.21921e-10
0.00052251
1.01499e-10
0.000522509
8.3517e-11
0.000522509
4.17608e-11
0.000522509
2.23291e-11
0.000522509
2.68191e-11
0.000522509
-1.40069e-11
0.000522509
-3.39588e-12
0.000522509
-6.16206e-11
0.000522509
3.68969e-12
0.000522509
-6.12452e-11
0.000522509
1.14394e-10
0.00052251
-1.88547e-10
0.00052251
2.16993e-10
0.000522509
6.87042e-10
-6.16754e-11
0.000553835
9.70482e-10
0.000553835
1.37561e-09
0.000553835
3.84845e-10
0.000553835
1.16391e-10
0.000553835
1.56242e-10
0.000553835
1.13891e-10
0.000553835
9.14964e-11
0.000553835
4.02347e-11
0.000553835
2.13384e-11
0.000553835
2.50626e-11
0.000553835
-1.17915e-11
0.000553835
-2.45259e-12
0.000553835
-5.74006e-11
0.000553835
5.0046e-12
0.000553835
-6.13058e-11
0.000553835
1.07992e-10
0.000553835
-1.85749e-10
0.000553835
1.99691e-10
0.000553835
6.74891e-10
-2.36119e-12
0.000578835
7.47372e-10
0.000578835
1.1731e-09
0.000578835
4.74121e-10
0.000578835
1.6889e-10
0.000578835
1.84608e-10
0.000578835
1.21297e-10
0.000578835
9.52121e-11
0.000578835
3.63546e-11
0.000578835
1.88642e-11
0.000578835
2.1664e-11
0.000578835
-9.23924e-12
0.000578835
-1.70922e-12
0.000578835
-5.08787e-11
0.000578835
5.53378e-12
0.000578835
-5.84181e-11
0.000578835
9.54784e-11
0.000578835
-1.73151e-10
0.000578835
1.76947e-10
0.000578835
6.30085e-10
5.47418e-11
0.000597509
5.02155e-10
0.00059751
9.23397e-10
0.00059751
5.30342e-10
0.00059751
2.08464e-10
0.00059751
2.03031e-10
0.00059751
1.21853e-10
0.00059751
9.35912e-11
0.00059751
2.98242e-11
0.00059751
1.49121e-11
0.00059751
1.6897e-11
0.00059751
-6.43291e-12
0.00059751
-9.11518e-13
0.00059751
-4.22835e-11
0.00059751
5.306e-12
0.00059751
-5.31857e-11
0.00059751
7.80302e-11
0.00059751
-1.52933e-10
0.00059751
1.51187e-10
0.00059751
5.5764e-10
1.04429e-10
0.000609859
2.63457e-10
0.000609859
6.58742e-10
0.000609859
5.5085e-10
0.000609859
2.295e-10
0.000609859
2.08498e-10
0.000609859
1.14464e-10
0.000609859
8.61653e-11
0.000609859
2.07324e-11
0.000609859
9.64315e-12
0.000609859
1.11903e-11
0.000609859
-3.46274e-12
0.000609859
2.22299e-13
0.000609859
-3.20361e-11
0.000609859
4.47815e-12
0.000609859
-4.64988e-11
0.000609859
5.73819e-11
0.000609859
-1.27848e-10
0.000609859
1.24352e-10
0.000609859
4.65085e-10
1.42573e-10
0.000615882
5.7976e-11
0.000615882
4.11112e-10
0.000615882
5.36321e-10
0.000615882
2.28954e-10
0.000615882
1.99538e-10
0.000615882
9.91756e-11
0.000615882
7.32873e-11
0.000615882
9.68023e-12
0.000615882
3.42098e-12
0.000615882
5.11249e-12
0.000615882
-4.28758e-13
0.000615882
1.9462e-12
0.000615882
-2.07631e-11
0.000615882
3.27567e-12
0.000615882
-3.93751e-11
0.000615882
3.55834e-11
0.000615882
-1.00843e-10
0.000615882
9.79196e-11
0.000615882
3.61681e-10
1.66292e-10
0.000615579
-9.28583e-11
0.000615579
2.07445e-10
0.000615579
4.89751e-10
0.000615579
2.06863e-10
0.000615579
1.76582e-10
0.000615579
7.73724e-11
0.000615579
5.62172e-11
0.000615579
-2.1997e-12
0.000615579
-3.18071e-12
0.000615579
-6.75412e-13
0.000615579
2.5015e-12
0.000615579
4.35521e-12
0.000615579
-9.3449e-12
0.000615579
1.89967e-12
0.000615579
-3.27671e-11
0.000615579
1.4802e-11
0.000615579
-7.46521e-11
0.000615579
7.30972e-11
0.000615579
2.57527e-10
1.73954e-10
0.000608949
-1.75991e-10
0.000608949
6.52586e-11
0.000608949
4.15362e-10
0.000608949
1.66534e-10
0.000608949
1.42085e-10
0.000608949
5.19551e-11
0.000608949
3.72492e-11
0.000608949
-1.31176e-11
0.000608949
-9.25863e-12
0.000608949
-5.35722e-12
0.000608949
5.07337e-12
0.000608949
7.19361e-12
0.000608949
1.00235e-12
0.000608949
4.81912e-13
0.000608949
-2.72397e-11
0.000608949
-2.77401e-12
0.000608949
-5.14296e-11
0.000608949
5.10031e-11
0.000608949
1.625e-10
1.64935e-10
0.000595991
-1.89668e-10
0.000595991
-1.04294e-11
0.000595991
3.18941e-10
0.000595991
1.14908e-10
0.000595991
1.00563e-10
0.000595991
2.71817e-11
0.000595991
1.94698e-11
0.000595991
-2.07441e-11
0.000595991
-1.3737e-11
0.000595991
-8.36125e-12
0.000595991
6.51832e-12
0.000595991
9.34319e-12
0.000595991
8.50913e-12
0.000595991
-8.58823e-13
0.000595991
-2.25556e-11
0.000595991
-1.4923e-11
0.000595991
-3.23438e-11
0.000595991
3.26415e-11
0.000595991
8.5305e-11
1.39531e-10
0.000576704
-1.43607e-10
0.000576704
-2.93487e-11
0.000576704
2.04897e-10
0.000576704
6.06767e-11
0.000576705
5.73917e-11
0.000576705
8.78668e-12
0.000576705
7.05997e-12
0.000576705
-2.15124e-11
0.000576705
-1.43693e-11
0.000576705
-8.02116e-12
0.000576705
6.17541e-12
0.000576705
8.45372e-12
0.000576705
9.89737e-12
0.000576705
-2.62462e-12
0.000576705
-1.69758e-11
0.000576705
-1.73279e-11
0.000576705
-1.61463e-11
0.000576705
1.90152e-11
0.000576705
3.0604e-11
9.70211e-11
0.000551088
-6.3157e-11
0.000551088
-1.31284e-11
0.000551088
8.72197e-11
0.000551088
1.88418e-11
0.000551088
1.96626e-11
0.000551088
1.36875e-12
0.000551088
1.8974e-12
0.000551088
-1.37141e-11
0.000551088
-1.07716e-11
0.000551088
-4.62395e-12
0.000551088
3.37415e-12
0.000551088
3.2205e-12
0.000551088
3.4226e-12
0.000551088
-4.75915e-12
0.000551088
-9.83197e-12
0.000551088
-9.45814e-12
0.000551088
-2.10742e-12
0.000551088
1.014e-11
0.000551088
3.76627e-12
4.04807e-11
0.00051914
0.00051914
0.00051914
0.00051914
0.00051914
0.00051914
0.00051914
0.00051914
0.00051914
0.00051914
0.00051914
0.00051914
0.00051914
0.00051914
0.00051914
0.00051914
0.00051914
0.00051914
0.00051914
)
;

boundaryField
{
    top
    {
        type            calculated;
        value           uniform 0;
    }
    bottom
    {
        type            calculated;
        value           uniform 0;
    }
    inlet
    {
        type            calculated;
        value           nonuniform List<scalar> 
20
(
-4.41401e-05
-0.000126088
-0.000201705
-0.000270992
-0.00033395
-0.00039058
-0.000440883
-0.000484859
-0.00052251
-0.000553835
-0.000578835
-0.000597509
-0.000609858
-0.000615882
-0.000615579
-0.000608949
-0.000595991
-0.000576704
-0.000551088
-0.00051914
)
;
    }
    outlet
    {
        type            calculated;
        value           nonuniform List<scalar> 
20
(
4.414e-05
0.000126088
0.000201704
0.000270991
0.000333949
0.000390579
0.000440882
0.000484859
0.000522509
0.000553835
0.000578835
0.00059751
0.000609859
0.000615882
0.000615579
0.000608949
0.000595992
0.000576705
0.000551088
0.00051914
)
;
    }
    frontAndBack
    {
        type            empty;
        value           nonuniform 0();
    }
}


// ************************************************************************* //
