/*--------------------------------*- C++ -*----------------------------------*\
| =========                 |                                                 |
| \\      /  F ield         | OpenFOAM: The Open Source CFD Toolbox           |
|  \\    /   O peration     | Version:  v1706                                 |
|   \\  /    A nd           | Web:      www.OpenFOAM.com                      |
|    \\/     M anipulation  |                                                 |
\*---------------------------------------------------------------------------*/
FoamFile
{
    version     2.0;
    format      ascii;
    class       volVectorField;
    location    "0.8";
    object      U;
}
// * * * * * * * * * * * * * * * * * * * * * * * * * * * * * * * * * * * * * //

dimensions      [0 1 -1 0 0 0 0];


internalField   nonuniform List<vector> 
400
(
(0.882801 4.62016e-08 0)
(0.882799 2.77692e-08 0)
(0.882799 -3.56699e-08 0)
(0.8828 -5.88704e-10 0)
(0.8828 -4.46537e-09 0)
(0.8828 3.56111e-09 0)
(0.8828 2.33191e-09 0)
(0.882799 4.09203e-09 0)
(0.8828 -1.34236e-09 0)
(0.882799 -1.95726e-09 0)
(0.8828 -6.00032e-09 0)
(0.882799 -6.59217e-09 0)
(0.8828 -7.27037e-09 0)
(0.882799 -5.34913e-10 0)
(0.8828 5.27424e-10 0)
(0.882799 6.33977e-09 0)
(0.8828 2.91502e-09 0)
(0.8828 8.40146e-09 0)
(0.882799 1.347e-08 0)
(0.882799 -2.51976e-08 0)
(2.52176 1.93983e-07 0)
(2.52175 1.47406e-07 0)
(2.52175 -1.11819e-07 0)
(2.52175 -1.4504e-08 0)
(2.52176 -1.33607e-08 0)
(2.52175 1.15205e-08 0)
(2.52175 7.88528e-09 0)
(2.52175 1.27042e-08 0)
(2.52175 -8.52116e-10 0)
(2.52175 2.62159e-10 0)
(2.52175 -8.89299e-09 0)
(2.52175 -1.05192e-08 0)
(2.52175 -1.96678e-08 0)
(2.52175 -4.93848e-09 0)
(2.52175 -3.30139e-09 0)
(2.52175 1.85175e-08 0)
(2.52175 3.13133e-09 0)
(2.52175 3.73731e-08 0)
(2.52175 6.62275e-08 0)
(2.52175 -8.0851e-08 0)
(4.0341 4.30621e-07 0)
(4.03409 3.66858e-07 0)
(4.03409 -1.90727e-07 0)
(4.03409 -3.62069e-08 0)
(4.03409 -1.69222e-08 0)
(4.03409 2.06268e-08 0)
(4.03409 1.4638e-08 0)
(4.03409 2.21191e-08 0)
(4.03409 1.79928e-09 0)
(4.03409 1.26881e-09 0)
(4.03409 -1.83374e-08 0)
(4.03409 -1.82274e-08 0)
(4.03409 -3.51263e-08 0)
(4.03409 -4.38551e-09 0)
(4.03409 -6.70111e-09 0)
(4.03409 3.86979e-08 0)
(4.03409 -1.39483e-08 0)
(4.03409 7.69331e-08 0)
(4.03409 1.47786e-07 0)
(4.03409 -1.41482e-07 0)
(5.41983 6.92762e-07 0)
(5.41983 6.4611e-07 0)
(5.41982 -2.26247e-07 0)
(5.41982 -6.18327e-08 0)
(5.41982 -1.54982e-08 0)
(5.41982 2.89959e-08 0)
(5.41982 2.31108e-08 0)
(5.41982 2.89846e-08 0)
(5.41982 8.24431e-09 0)
(5.41982 9.26378e-09 0)
(5.41982 -1.86564e-08 0)
(5.41982 -1.65981e-08 0)
(5.41982 -4.53723e-08 0)
(5.41982 -5.2819e-09 0)
(5.41982 -1.51983e-08 0)
(5.41982 5.69888e-08 0)
(5.41982 -4.3436e-08 0)
(5.41982 1.21053e-07 0)
(5.41982 2.53224e-07 0)
(5.41982 -1.83149e-07 0)
(6.67899 9.38733e-07 0)
(6.67899 9.40538e-07 0)
(6.67898 -2.14024e-07 0)
(6.67898 -7.82764e-08 0)
(6.67898 -5.99901e-09 0)
(6.67898 3.78895e-08 0)
(6.67898 3.1824e-08 0)
(6.67898 3.28453e-08 0)
(6.67898 1.20562e-08 0)
(6.67898 1.45001e-08 0)
(6.67898 -1.92526e-08 0)
(6.67898 -1.39361e-08 0)
(6.67898 -5.31817e-08 0)
(6.67898 -5.10446e-09 0)
(6.67898 -2.66317e-08 0)
(6.67898 7.40502e-08 0)
(6.67898 -7.93026e-08 0)
(6.67898 1.64911e-07 0)
(6.67898 3.67812e-07 0)
(6.67898 -2.04579e-07 0)
(7.81159 1.13138e-06 0)
(7.81159 1.20683e-06 0)
(7.81158 -1.52487e-07 0)
(7.81158 -7.84341e-08 0)
(7.81158 1.13563e-08 0)
(7.81158 4.90443e-08 0)
(7.81158 4.24192e-08 0)
(7.81158 3.60669e-08 0)
(7.81158 1.59071e-08 0)
(7.81158 1.97381e-08 0)
(7.81158 -1.87143e-08 0)
(7.81158 -1.06714e-08 0)
(7.81158 -5.86887e-08 0)
(7.81158 -3.79971e-09 0)
(7.81158 -3.789e-08 0)
(7.81158 9.00172e-08 0)
(7.81158 -1.16113e-07 0)
(7.81158 1.98501e-07 0)
(7.81158 4.78195e-07 0)
(7.81158 -2.03533e-07 0)
(8.81765 1.2481e-06 0)
(8.81765 1.41113e-06 0)
(8.81764 -5.14637e-08 0)
(8.81764 -5.91455e-08 0)
(8.81764 3.65248e-08 0)
(8.81764 6.27228e-08 0)
(8.81764 5.43199e-08 0)
(8.81764 3.8729e-08 0)
(8.81764 1.90122e-08 0)
(8.81764 2.37769e-08 0)
(8.81764 -1.78342e-08 0)
(8.81764 -7.7819e-09 0)
(8.81764 -6.22485e-08 0)
(8.81764 -1.73348e-09 0)
(8.81764 -4.78696e-08 0)
(8.81764 1.03449e-07 0)
(8.81764 -1.48545e-07 0)
(8.81764 2.19409e-07 0)
(8.81764 5.73464e-07 0)
(8.81764 -1.81664e-07 0)
(9.69718 1.27604e-06 0)
(9.69718 1.52801e-06 0)
(9.69718 7.44722e-08 0)
(9.69717 -2.1422e-08 0)
(9.69718 6.82492e-08 0)
(9.69717 7.82652e-08 0)
(9.69718 6.67987e-08 0)
(9.69717 4.08344e-08 0)
(9.69718 2.12301e-08 0)
(9.69717 2.63723e-08 0)
(9.69718 -1.65777e-08 0)
(9.69717 -5.49388e-09 0)
(9.69718 -6.37496e-08 0)
(9.69717 6.78882e-10 0)
(9.69718 -5.5597e-08 0)
(9.69717 1.12609e-07 0)
(9.69718 -1.72855e-07 0)
(9.69717 2.2704e-07 0)
(9.69718 6.44209e-07 0)
(9.69717 -1.42222e-07 0)
(10.4502 1.21394e-06 0)
(10.4502 1.54414e-06 0)
(10.4502 2.08305e-07 0)
(10.4502 3.02133e-08 0)
(10.4502 1.04026e-07 0)
(10.4502 9.42166e-08 0)
(10.4502 7.86413e-08 0)
(10.4502 4.19483e-08 0)
(10.4502 2.23119e-08 0)
(10.4502 2.72636e-08 0)
(10.4502 -1.49429e-08 0)
(10.4502 -3.83189e-09 0)
(10.4502 -6.3046e-08 0)
(10.4502 2.9242e-09 0)
(10.4502 -6.04629e-08 0)
(10.4502 1.16029e-07 0)
(10.4502 -1.86626e-07 0)
(10.4502 2.22793e-07 0)
(10.4502 6.83716e-07 0)
(10.4502 -9.01852e-08 0)
(11.0767 1.0714e-06 0)
(11.0767 1.45992e-06 0)
(11.0767 3.33699e-07 0)
(11.0767 8.86139e-08 0)
(11.0767 1.40229e-07 0)
(11.0767 1.08551e-07 0)
(11.0767 8.84008e-08 0)
(11.0767 4.15277e-08 0)
(11.0767 2.20921e-08 0)
(11.0767 2.63832e-08 0)
(11.0767 -1.29003e-08 0)
(11.0767 -2.68183e-09 0)
(11.0767 -6.00042e-08 0)
(11.0767 4.61847e-09 0)
(11.0767 -6.21201e-08 0)
(11.0767 1.12904e-07 0)
(11.0767 -1.8912e-07 0)
(11.0767 2.09064e-07 0)
(11.0767 6.88661e-07 0)
(11.0767 -3.14674e-08 0)
(11.5767 8.67236e-07 0)
(11.5767 1.2889e-06 0)
(11.5767 4.37328e-07 0)
(11.5767 1.45471e-07 0)
(11.5767 1.72576e-07 0)
(11.5767 1.18978e-07 0)
(11.5767 9.45633e-08 0)
(11.5767 3.89784e-08 0)
(11.5767 2.04227e-08 0)
(11.5767 2.37673e-08 0)
(11.5767 -1.0493e-08 0)
(11.5767 -1.87094e-09 0)
(11.5767 -5.46048e-08 0)
(11.5767 5.53578e-09 0)
(11.5767 -6.06045e-08 0)
(11.5767 1.03257e-07 0)
(11.5767 -1.81008e-07 0)
(11.5767 1.88639e-07 0)
(11.5767 6.59276e-07 0)
(11.5767 2.78222e-08 0)
(11.9502 6.26764e-07 0)
(11.9502 1.0553e-06 0)
(11.9502 5.10183e-07 0)
(11.9502 1.92701e-07 0)
(11.9502 1.96761e-07 0)
(11.9502 1.23345e-07 0)
(11.9502 9.58163e-08 0)
(11.9502 3.38469e-08 0)
(11.9502 1.72371e-08 0)
(11.9502 1.9605e-08 0)
(11.9502 -7.79614e-09 0)
(11.9502 -1.16758e-09 0)
(11.9502 -4.69866e-08 0)
(11.9502 5.62889e-09 0)
(11.9502 -5.63516e-08 0)
(11.9502 8.79298e-08 0)
(11.9502 -1.64083e-07 0)
(11.9502 1.64149e-07 0)
(11.9502 5.99141e-07 0)
(11.9502 8.2041e-08 0)
(12.1972 3.78585e-07 0)
(12.1972 7.90222e-07 0)
(12.1972 5.47786e-07 0)
(12.1972 2.23627e-07 0)
(12.1972 2.09146e-07 0)
(12.1972 1.20078e-07 0)
(12.1972 9.13286e-08 0)
(12.1972 2.59928e-08 0)
(12.1972 1.26001e-08 0)
(12.1972 1.42451e-08 0)
(12.1972 -4.89652e-09 0)
(12.1972 -2.94296e-10 0)
(12.1972 -3.74719e-08 0)
(12.1972 5.00989e-09 0)
(12.1972 -5.01406e-08 0)
(12.1972 6.84316e-08 0)
(12.1972 -1.40886e-07 0)
(12.1972 1.37764e-07 0)
(12.1972 5.14693e-07 0)
(12.1972 1.26483e-07 0)
(12.3176 1.51116e-07 0)
(12.3176 5.26993e-07 0)
(12.3176 5.49586e-07 0)
(12.3176 2.33875e-07 0)
(12.3176 2.07399e-07 0)
(12.3176 1.08561e-07 0)
(12.3176 8.09812e-08 0)
(12.3176 1.5714e-08 0)
(12.3176 6.74276e-09 0)
(12.3176 8.17566e-09 0)
(12.3176 -1.89949e-09 0)
(12.3176 1.02739e-09 0)
(12.3176 -2.65886e-08 0)
(12.3176 3.88282e-09 0)
(12.3176 -4.29814e-08 0)
(12.3176 4.67177e-08 0)
(12.3177 -1.14317e-07 0)
(12.3176 1.11144e-07 0)
(12.3177 4.1452e-07 0)
(12.3176 1.57664e-07 0)
(12.3116 -3.10057e-08 0)
(12.3116 2.96035e-07 0)
(12.3116 5.17689e-07 0)
(12.3116 2.2185e-07 0)
(12.3116 1.90992e-07 0)
(12.3116 8.9551e-08 0)
(12.3116 6.56613e-08 0)
(12.3116 3.9504e-09 0)
(12.3116 1.75655e-10 0)
(12.3116 2.07218e-09 0)
(12.3116 1.12067e-09 0)
(12.3116 3.01832e-09 0)
(12.3116 -1.50575e-08 0)
(12.3116 2.52004e-09 0)
(12.3116 -3.58741e-08 0)
(12.3116 2.49021e-08 0)
(12.3116 -8.73623e-08 0)
(12.3116 8.5547e-08 0)
(12.3116 3.08491e-07 0)
(12.3116 1.7338e-07 0)
(12.179 -1.49741e-07 0)
(12.179 1.20664e-07 0)
(12.179 4.56065e-07 0)
(12.179 1.89181e-07 0)
(12.179 1.61336e-07 0)
(12.179 6.50464e-08 0)
(12.179 4.70487e-08 0)
(12.179 -7.92537e-09 0)
(12.179 -6.46289e-09 0)
(12.179 -3.40517e-09 0)
(12.179 3.92796e-09 0)
(12.179 5.62913e-09 0)
(12.179 -3.91901e-09 0)
(12.179 1.0778e-09 0)
(12.179 -2.96895e-08 0)
(12.179 5.20508e-09 0)
(12.179 -6.24658e-08 0)
(12.179 6.20896e-08 0)
(12.179 2.06804e-07 0)
(12.179 1.72655e-07 0)
(11.9198 -1.95959e-07 0)
(11.9198 1.24541e-08 0)
(11.9198 3.67512e-07 0)
(11.9198 1.40177e-07 0)
(11.9198 1.21498e-07 0)
(11.9198 3.89187e-08 0)
(11.9198 2.82404e-08 0)
(11.9198 -1.73511e-08 0)
(11.9198 -1.16112e-08 0)
(11.9198 -6.67347e-09 0)
(11.9198 6.66831e-09 0)
(11.9198 8.55511e-09 0)
(11.9198 5.35984e-09 0)
(11.9198 -4.16357e-10 0)
(11.9198 -2.46382e-08 0)
(11.9198 -9.80792e-09 0)
(11.9198 -4.11156e-08 0)
(11.9198 4.1963e-08 0)
(11.9198 1.18367e-07 0)
(11.9198 1.54487e-07 0)
(11.5341 -1.76069e-07 0)
(11.5341 -2.9321e-08 0)
(11.5341 2.64723e-07 0)
(11.5341 8.771e-08 0)
(11.5341 7.80347e-08 0)
(11.5341 1.45225e-08 0)
(11.5341 1.07624e-08 0)
(11.5341 -2.3562e-08 0)
(11.5341 -1.60582e-08 0)
(11.5341 -1.02067e-08 0)
(11.5341 5.83101e-09 0)
(11.5341 9.0651e-09 0)
(11.5341 1.08343e-08 0)
(11.5341 -1.43562e-09 0)
(11.5341 -2.03735e-08 0)
(11.5341 -1.91506e-08 0)
(11.5341 -2.3637e-08 0)
(11.5341 2.52998e-08 0)
(11.5341 5.3336e-08 0)
(11.5341 1.21448e-07 0)
(11.0218 -1.06568e-07 0)
(11.0218 -2.80671e-08 0)
(11.0218 1.38362e-07 0)
(11.0218 3.39605e-08 0)
(11.0218 3.59361e-08 0)
(11.0218 4.52144e-09 0)
(11.0218 4.64005e-09 0)
(11.0218 -1.74325e-08 0)
(11.0218 -1.18908e-08 0)
(11.0218 -4.66786e-09 0)
(11.0218 6.65837e-09 0)
(11.0218 6.51565e-09 0)
(11.0218 7.18448e-09 0)
(11.0218 -4.14607e-09 0)
(11.0218 -1.27824e-08 0)
(11.0218 -1.38101e-08 0)
(11.0218 -7.73568e-09 0)
(11.0218 1.45537e-08 0)
(11.0218 9.81138e-09 0)
(11.0218 6.6895e-08 0)
(10.3828 -3.15185e-08 0)
(10.3828 -6.0161e-09 0)
(10.3828 4.42951e-08 0)
(10.3828 8.94134e-09 0)
(10.3828 8.09981e-09 0)
(10.3828 -3.5425e-09 0)
(10.3828 -1.24884e-09 0)
(10.3828 -8.32755e-09 0)
(10.3828 -6.60233e-09 0)
(10.3828 -3.2983e-09 0)
(10.3828 1.62098e-09 0)
(10.3828 2.43147e-09 0)
(10.3828 3.64002e-09 0)
(10.3828 -1.58927e-09 0)
(10.3828 -5.97328e-09 0)
(10.3828 -7.09474e-09 0)
(10.3828 -1.10638e-09 0)
(10.3828 4.69582e-09 0)
(10.3828 1.72193e-09 0)
(10.3828 2.25998e-08 0)
)
;

boundaryField
{
    top
    {
        type            fixedValue;
        value           uniform (10 0 0);
    }
    bottom
    {
        type            fixedValue;
        value           uniform (0 0 0);
    }
    inlet
    {
        type            zeroGradient;
    }
    outlet
    {
        type            zeroGradient;
    }
    frontAndBack
    {
        type            empty;
    }
}


// ************************************************************************* //
