/*--------------------------------*- C++ -*----------------------------------*\
| =========                 |                                                 |
| \\      /  F ield         | OpenFOAM: The Open Source CFD Toolbox           |
|  \\    /   O peration     | Version:  v1706                                 |
|   \\  /    A nd           | Web:      www.OpenFOAM.com                      |
|    \\/     M anipulation  |                                                 |
\*---------------------------------------------------------------------------*/
FoamFile
{
    version     2.0;
    format      ascii;
    class       surfaceScalarField;
    location    "2.1";
    object      phi;
}
// * * * * * * * * * * * * * * * * * * * * * * * * * * * * * * * * * * * * * //

dimensions      [0 3 -1 0 0 0 0];
oriented        oriented;


internalField   nonuniform List<scalar> 
760
(
4.41639e-05
-3.62491e-12
4.41639e-05
-8.20133e-14
4.41639e-05
-4.34814e-12
4.41639e-05
3.35894e-12
4.41639e-05
-5.47928e-12
4.41639e-05
3.87253e-12
4.41639e-05
-6.24792e-12
4.41639e-05
3.20025e-12
4.41639e-05
-6.90701e-12
4.41639e-05
1.17763e-12
4.41639e-05
-7.77855e-12
4.41639e-05
-2.01095e-12
4.41639e-05
-9.49138e-12
4.41639e-05
-6.68933e-12
4.41639e-05
-1.32217e-11
4.41639e-05
-1.37466e-11
4.41639e-05
-1.9571e-11
4.41639e-05
-2.06436e-11
4.41639e-05
-2.17586e-11
-1.95742e-11
0.000126159
-9.01934e-12
0.000126159
-3.18656e-12
0.000126159
-8.91802e-12
0.000126159
4.88742e-12
0.000126159
-9.71883e-12
0.000126159
5.90768e-12
0.000126159
-1.0546e-11
0.000126159
4.57301e-12
0.000126159
-1.15035e-11
0.000126159
7.96769e-13
0.000126159
-1.3139e-11
0.000126159
-4.96396e-12
0.000126159
-1.65411e-11
0.000126159
-1.33055e-11
0.000126159
-2.3829e-11
0.000126159
-2.60338e-11
0.000126159
-3.66527e-11
0.000126159
-3.93883e-11
0.000126159
-4.34868e-11
-3.98704e-11
0.000201821
-1.43294e-11
0.000201821
-8.13324e-12
0.000201821
-1.34482e-11
0.000201821
4.82189e-12
0.000201821
-1.29779e-11
0.000201821
6.33755e-12
0.000201821
-1.35009e-11
0.000201821
4.29744e-12
0.000201821
-1.47135e-11
0.000201821
-1.16971e-12
0.000201821
-1.73417e-11
0.000201821
-9.32736e-12
0.000201821
-2.28538e-11
0.000201821
-2.11013e-11
0.000201821
-3.43066e-11
0.000201821
-3.9348e-11
0.000201821
-5.49346e-11
0.000201821
-6.00905e-11
0.000201821
-6.89201e-11
-6.27522e-11
0.00027115
-1.85889e-11
0.00027115
-1.3589e-11
0.00027115
-1.74405e-11
0.00027115
3.42937e-12
0.00027115
-1.51489e-11
0.00027115
5.36081e-12
0.00027115
-1.51162e-11
0.00027115
2.60254e-12
0.00027115
-1.65533e-11
0.00027115
-4.39249e-12
0.00027115
-2.03386e-11
0.00027115
-1.46525e-11
0.00027115
-2.82301e-11
0.00027115
-2.94744e-11
0.00027115
-4.41578e-11
0.00027115
-5.28138e-11
0.00027115
-7.33143e-11
0.00027115
-8.14328e-11
0.00027115
-9.57637e-11
-8.54349e-11
0.000334147
-2.12269e-11
0.000334147
-1.82595e-11
0.000334147
-2.07507e-11
0.000334147
1.50989e-12
0.000334147
-1.66831e-11
0.000334147
3.76056e-12
0.000334147
-1.60284e-11
0.000334147
2.98056e-13
0.000334147
-1.76834e-11
0.000334147
-8.08306e-12
0.000334147
-2.26891e-11
0.000334147
-2.02273e-11
0.000334147
-3.30255e-11
0.000334147
-3.78143e-11
0.000334147
-5.34552e-11
0.000334147
-6.58664e-11
0.000334147
-9.13016e-11
0.000334147
-1.02792e-10
0.000334147
-1.23048e-10
-1.07737e-10
0.000390811
-2.19167e-11
0.000390811
-2.12967e-11
0.000390811
-2.29615e-11
0.000390811
-4.89412e-13
0.000390811
-1.75381e-11
0.000390811
1.88721e-12
0.000390811
-1.62808e-11
0.000390811
-2.22013e-12
0.000390811
-1.81102e-11
0.000390811
-1.17291e-11
0.000390811
-2.42473e-11
0.000390811
-2.53676e-11
0.000390811
-3.67978e-11
0.000390811
-4.51518e-11
0.000390811
-6.12241e-11
0.000390811
-7.70477e-11
0.000390811
-1.06923e-10
0.000390811
-1.21952e-10
0.000390811
-1.47998e-10
-1.27501e-10
0.000441142
-2.06583e-11
0.000441142
-2.22295e-11
0.000441142
-2.38054e-11
0.000441142
-2.17742e-12
0.000441142
-1.77144e-11
0.000441142
2.84868e-14
0.000441142
-1.59693e-11
0.000441142
-4.65915e-12
0.000441142
-1.79351e-11
0.000441142
-1.49968e-11
0.000441142
-2.50359e-11
0.000441142
-2.96772e-11
0.000441142
-3.94094e-11
0.000441142
-5.10086e-11
0.000441142
-6.70544e-11
0.000441142
-8.57107e-11
0.000441142
-1.19177e-10
0.000441142
-1.37742e-10
0.000441142
-1.68897e-10
-1.43324e-10
0.00048514
-1.77026e-11
0.00048514
-2.09808e-11
0.00048514
-2.31635e-11
0.00048514
-3.32308e-12
0.00048514
-1.71962e-11
0.00048514
-1.65975e-12
0.00048514
-1.51558e-11
0.00048514
-6.87617e-12
0.00048514
-1.72524e-11
0.00048514
-1.77398e-11
0.00048514
-2.5128e-11
0.00048514
-3.30197e-11
0.00048514
-4.08853e-11
0.00048514
-5.52677e-11
0.00048514
-7.08842e-11
0.00048514
-9.17601e-11
0.00048514
-1.27727e-10
0.00048514
-1.49696e-10
0.00048514
-1.84802e-10
-1.5436e-10
0.000522806
-1.34901e-11
0.000522806
-1.78145e-11
0.000522806
-2.11074e-11
0.000522806
-3.83508e-12
0.000522806
-1.59996e-11
0.000522806
-3.09e-12
0.000522806
-1.38975e-11
0.000522806
-8.78437e-12
0.000522806
-1.61431e-11
0.000522806
-1.98801e-11
0.000522806
-2.45971e-11
0.000522806
-3.53394e-11
0.000522806
-4.12738e-11
0.000522806
-5.79122e-11
0.000522806
-7.2727e-11
0.000522806
-9.52355e-11
0.000522806
-1.32456e-10
0.000522806
-1.57524e-10
0.000522806
-1.95092e-10
-1.60073e-10
0.000554138
-8.56678e-12
0.000554138
-1.32513e-11
0.000554138
-1.78928e-11
0.000554138
-3.76061e-12
0.000554138
-1.41926e-11
0.000554138
-4.23304e-12
0.000554138
-1.22592e-11
0.000554138
-1.03363e-11
0.000554138
-1.46804e-11
0.000554138
-2.13854e-11
0.000554138
-2.35089e-11
0.000554138
-3.66352e-11
0.000554138
-4.06372e-11
0.000554138
-5.89879e-11
0.000554138
-7.26507e-11
0.000554138
-9.62527e-11
0.000554138
-1.33416e-10
0.000554138
-1.61082e-10
0.000554138
-1.99422e-10
-1.6027e-10
0.000579138
-3.51034e-12
0.000579138
-7.97052e-12
0.000579138
-1.39214e-11
0.000579138
-3.2571e-12
0.000579138
-1.19035e-11
0.000579138
-5.10026e-12
0.000579138
-1.03225e-11
0.000579138
-1.15076e-11
0.000579138
-1.29327e-11
0.000579138
-2.22456e-11
0.000579138
-2.19201e-11
0.000579138
-3.69292e-11
0.000579138
-3.90368e-11
0.000579138
-5.85589e-11
0.000579138
-7.07425e-11
0.000579138
-9.49332e-11
0.000579138
-1.30754e-10
0.000579138
-1.603e-10
0.000579138
-1.97644e-10
-1.55041e-10
0.000597806
1.13359e-12
0.000597806
-2.70408e-12
0.000597806
-9.67879e-12
0.000597806
-2.54851e-12
0.000597806
-9.31208e-12
0.000597806
-5.72757e-12
0.000597806
-8.18673e-12
0.000597806
-1.22866e-11
0.000597806
-1.09666e-11
0.000597806
-2.2463e-11
0.000597806
-1.98808e-11
0.000597806
-3.62535e-11
0.000597806
-3.65323e-11
0.000597806
-5.66913e-11
0.000597806
-6.7102e-11
0.000597806
-9.13832e-11
0.000597806
-1.24674e-10
0.000597806
-1.55175e-10
0.000597806
-1.89793e-10
-1.44717e-10
0.00061014
4.90582e-12
0.00061014
1.86583e-12
0.00061014
-5.66174e-12
0.00061014
-1.86932e-12
0.00061014
-6.62923e-12
0.00061014
-6.1571e-12
0.00061014
-5.96539e-12
0.00061014
-1.26672e-11
0.00061014
-8.8501e-12
0.00061014
-2.20477e-11
0.00061014
-1.74411e-11
0.00061014
-3.46466e-11
0.00061014
-3.31892e-11
0.00061014
-5.34522e-11
0.00061014
-6.18464e-11
0.00061014
-8.56981e-11
0.00061014
-1.15435e-10
0.00061014
-1.45791e-10
0.00061014
-1.76097e-10
-1.29852e-10
0.000616142
7.46231e-12
0.000616142
5.1899e-12
0.000616142
-2.30132e-12
0.000616142
-1.40802e-12
0.000616142
-4.07181e-12
0.000616142
-6.41721e-12
0.000616142
-3.78457e-12
0.000616142
-1.26416e-11
0.000616142
-6.66042e-12
0.000616142
-2.10141e-11
0.000616142
-1.46675e-11
0.000616142
-3.21549e-11
0.000616142
-2.9098e-11
0.000616142
-4.89237e-11
0.000616142
-5.5135e-11
0.000616142
-7.79954e-11
0.000616142
-1.03367e-10
0.000616142
-1.32364e-10
0.000616142
-1.57044e-10
-1.11244e-10
0.000615811
8.61728e-12
0.000615811
6.93841e-12
0.000615811
9.99822e-14
0.000615811
-1.25542e-12
0.000615811
-1.8328e-12
0.000615811
-6.50128e-12
0.000615811
-1.76724e-12
0.000615811
-1.21873e-11
0.000615811
-4.47444e-12
0.000615811
-1.93656e-11
0.000615811
-1.16283e-11
0.000615811
-2.88191e-11
0.000615811
-2.43486e-11
0.000615811
-4.31722e-11
0.000615811
-4.71195e-11
0.000615811
-6.83639e-11
0.000615811
-8.87938e-11
0.000615811
-1.15177e-10
0.000615811
-1.33366e-10
-8.99359e-11
0.000609147
8.34075e-12
0.000609147
7.03154e-12
0.000609147
1.41709e-12
0.000609147
-1.37874e-12
0.000609147
-8.68645e-14
0.000609147
-6.35248e-12
0.000609147
-7.65348e-14
0.000609147
-1.12645e-11
0.000609147
-2.44873e-12
0.000609147
-1.71161e-11
0.000609147
-8.51105e-12
0.000609147
-2.47296e-11
0.000609147
-1.91993e-11
0.000609147
-3.63961e-11
0.000609147
-3.81969e-11
0.000609147
-5.71547e-11
0.000609147
-7.2421e-11
0.000609147
-9.50297e-11
0.000609147
-1.06484e-10
-6.75104e-11
0.00059615
6.79185e-12
0.00059615
5.73137e-12
0.00059615
1.71043e-12
0.00059615
-1.63789e-12
0.00059615
1.04722e-12
0.00059615
-5.92682e-12
0.00059615
1.13973e-12
0.00059615
-9.91725e-12
0.00059615
-7.66558e-13
0.00059615
-1.44203e-11
0.00059615
-5.59323e-12
0.00059615
-2.01909e-11
0.00059615
-1.40911e-11
0.00059615
-2.91246e-11
0.00059615
-2.90961e-11
0.00059615
-4.5248e-11
0.00059615
-5.55534e-11
0.00059615
-7.36311e-11
0.00059615
-7.8806e-11
-4.62754e-11
0.000576821
4.36509e-12
0.000576821
3.51956e-12
0.000576821
1.27945e-12
0.000576821
-1.66884e-12
0.000576821
1.42274e-12
0.000576821
-4.80318e-12
0.000576821
1.61139e-12
0.000576821
-7.62905e-12
0.000576821
2.95445e-13
0.000576821
-1.06772e-11
0.000576821
-3.07181e-12
0.000576821
-1.45233e-11
0.000576821
-9.01849e-12
0.000576821
-2.05342e-11
0.000576821
-1.94533e-11
0.000576821
-3.15349e-11
0.000576821
-3.74465e-11
0.000576821
-5.01116e-11
0.000576821
-5.09684e-11
-2.7806e-11
0.000551159
1.55618e-12
0.000551159
1.36979e-12
0.000551159
4.87855e-13
0.000551159
-1.25149e-12
0.000551159
1.08283e-12
0.000551159
-3.06779e-12
0.000551159
1.3313e-12
0.000551159
-4.70469e-12
0.000551159
6.49809e-13
0.000551159
-6.40049e-12
0.000551159
-1.21442e-12
0.000551159
-8.48865e-12
0.000551159
-4.56703e-12
0.000551159
-1.17577e-11
0.000551159
-1.0416e-11
0.000551159
-1.7795e-11
0.000551159
-2.02013e-11
0.000551159
-2.73383e-11
0.000551159
-2.5945e-11
-1.40086e-11
0.000519164
0.000519164
0.000519164
0.000519164
0.000519164
0.000519164
0.000519164
0.000519164
0.000519164
0.000519164
0.000519164
0.000519164
0.000519164
0.000519164
0.000519164
0.000519164
0.000519164
0.000519164
0.000519164
)
;

boundaryField
{
    top
    {
        type            calculated;
        value           uniform 0;
    }
    bottom
    {
        type            calculated;
        value           uniform 0;
    }
    inlet
    {
        type            calculated;
        value           nonuniform List<scalar> 
20
(
-4.41639e-05
-0.000126159
-0.000201821
-0.00027115
-0.000334147
-0.000390811
-0.000441142
-0.00048514
-0.000522806
-0.000554138
-0.000579138
-0.000597806
-0.00061014
-0.000616142
-0.000615811
-0.000609147
-0.00059615
-0.000576821
-0.000551159
-0.000519164
)
;
    }
    outlet
    {
        type            calculated;
        value           nonuniform List<scalar> 
20
(
4.41639e-05
0.000126159
0.000201821
0.00027115
0.000334147
0.000390811
0.000441142
0.00048514
0.000522806
0.000554138
0.000579138
0.000597806
0.00061014
0.000616142
0.000615811
0.000609147
0.00059615
0.000576821
0.000551159
0.000519164
)
;
    }
    frontAndBack
    {
        type            empty;
        value           nonuniform 0();
    }
}


// ************************************************************************* //
