/*--------------------------------*- C++ -*----------------------------------*\
| =========                 |                                                 |
| \\      /  F ield         | OpenFOAM: The Open Source CFD Toolbox           |
|  \\    /   O peration     | Version:  v1706                                 |
|   \\  /    A nd           | Web:      www.OpenFOAM.com                      |
|    \\/     M anipulation  |                                                 |
\*---------------------------------------------------------------------------*/
FoamFile
{
    version     2.0;
    format      ascii;
    class       volVectorField;
    location    "2.1";
    object      U;
}
// * * * * * * * * * * * * * * * * * * * * * * * * * * * * * * * * * * * * * //

dimensions      [0 1 -1 0 0 0 0];


internalField   nonuniform List<vector> 
400
(
(0.883278 -1.7035e-09 0)
(0.883278 1.07701e-10 0)
(0.883278 -1.97064e-09 0)
(0.883278 1.65955e-09 0)
(0.883278 -2.56614e-09 0)
(0.883278 1.8926e-09 0)
(0.883278 -2.94354e-09 0)
(0.883278 1.58761e-09 0)
(0.883278 -3.23819e-09 0)
(0.883278 6.64939e-10 0)
(0.883278 -3.60369e-09 0)
(0.883278 -8.02766e-10 0)
(0.883278 -4.3403e-09 0)
(0.883278 -2.95908e-09 0)
(0.883278 -6.005e-09 0)
(0.883278 -6.17703e-09 0)
(0.883278 -8.80583e-09 0)
(0.883278 -9.24236e-09 0)
(0.883278 -9.55048e-09 0)
(0.883278 -8.45895e-09 0)
(2.52318 -6.2061e-09 0)
(2.52318 -1.21284e-09 0)
(2.52318 -6.54577e-09 0)
(2.52318 4.34807e-09 0)
(2.52318 -7.72255e-09 0)
(2.52318 5.02751e-09 0)
(2.52318 -8.6397e-09 0)
(2.52318 3.93779e-09 0)
(2.52318 -9.54796e-09 0)
(2.52318 9.03033e-10 0)
(2.52318 -1.09129e-08 0)
(2.52318 -3.79872e-09 0)
(2.52318 -1.36469e-08 0)
(2.52318 -1.06544e-08 0)
(2.52318 -1.9512e-08 0)
(2.52318 -2.11021e-08 0)
(2.52318 -2.95817e-08 0)
(2.52318 -3.17304e-08 0)
(2.52318 -3.38783e-08 0)
(2.52318 -3.04433e-08 0)
(4.03642 -1.17171e-08 0)
(4.03642 -5.36283e-09 0)
(4.03642 -1.11677e-08 0)
(4.03642 5.11342e-09 0)
(4.03642 -1.15003e-08 0)
(4.03642 6.33637e-09 0)
(4.03642 -1.22655e-08 0)
(4.03642 4.60257e-09 0)
(4.03642 -1.34055e-08 0)
(4.03642 -1.08144e-10 0)
(4.03642 -1.55748e-08 0)
(4.03642 -7.19514e-09 0)
(4.03642 -2.00858e-08 0)
(4.03642 -1.74396e-08 0)
(4.03642 -2.958e-08 0)
(4.03642 -3.32317e-08 0)
(4.03642 -4.64602e-08 0)
(4.03642 -5.05009e-08 0)
(4.03642 -5.66315e-08 0)
(4.03642 -5.14972e-08 0)
(5.42301 -1.67167e-08 0)
(5.42301 -1.09398e-08 0)
(5.42301 -1.54117e-08 0)
(5.42301 4.14342e-09 0)
(5.42301 -1.40113e-08 0)
(5.42301 5.83901e-09 0)
(5.42301 -1.42593e-08 0)
(5.42301 3.42386e-09 0)
(5.42301 -1.55865e-08 0)
(5.42301 -2.81502e-09 0)
(5.42301 -1.87902e-08 0)
(5.42301 -1.19988e-08 0)
(5.42301 -2.54806e-08 0)
(5.42301 -2.52744e-08 0)
(5.42301 -3.91468e-08 0)
(5.42301 -4.60542e-08 0)
(5.42301 -6.39737e-08 0)
(5.42301 -7.06521e-08 0)
(5.42301 -8.20087e-08 0)
(5.42301 -7.37547e-08 0)
(6.68294 -2.03154e-08 0)
(6.68294 -1.62447e-08 0)
(6.68294 -1.92254e-08 0)
(6.68294 2.44379e-09 0)
(6.68294 -1.59416e-08 0)
(6.68294 4.56371e-09 0)
(6.68294 -1.55746e-08 0)
(6.68294 1.45585e-09 0)
(6.68294 -1.71085e-08 0)
(6.68294 -6.23623e-09 0)
(6.68294 -2.14919e-08 0)
(6.68294 -1.74342e-08 0)
(6.68294 -3.05907e-08 0)
(6.68294 -3.36323e-08 0)
(6.68294 -4.87539e-08 0)
(6.68294 -5.93223e-08 0)
(6.68294 -8.22383e-08 0)
(6.68294 -9.20355e-08 0)
(6.68294 -1.09302e-07 0)
(6.68294 -9.66091e-08 0)
(7.81622 -2.20215e-08 0)
(7.81622 -2.02474e-08 0)
(7.81622 -2.20929e-08 0)
(7.81622 4.20521e-10 0)
(7.81622 -1.71742e-08 0)
(7.81622 2.81046e-09 0)
(7.81622 -1.61679e-08 0)
(7.81622 -9.54719e-10 0)
(7.81622 -1.78831e-08 0)
(7.81622 -9.89565e-09 0)
(7.81622 -2.34309e-08 0)
(7.81622 -2.27801e-08 0)
(7.81622 -3.48533e-08 0)
(7.81622 -4.14414e-08 0)
(7.81622 -5.72557e-08 0)
(7.81622 -7.13774e-08 0)
(7.81622 -9.90231e-08 0)
(7.81622 -1.12219e-07 0)
(7.81622 -1.35481e-07 0)
(7.81622 -1.17771e-07 0)
(8.82284 -2.17098e-08 0)
(8.82284 -2.22856e-08 0)
(8.82284 -2.36888e-08 0)
(8.82284 -1.46614e-09 0)
(8.82284 -1.7724e-08 0)
(8.82284 9.35356e-10 0)
(8.82284 -1.61508e-08 0)
(8.82284 -3.42872e-09 0)
(8.82284 -1.80073e-08 0)
(8.82284 -1.33431e-08 0)
(8.82284 -2.45933e-08 0)
(8.82284 -2.74864e-08 0)
(8.82284 -3.8025e-08 0)
(8.82284 -4.80036e-08 0)
(8.82284 -6.40232e-08 0)
(8.82284 -8.1231e-08 0)
(8.82284 -1.1293e-07 0)
(8.82284 -1.2962e-07 0)
(8.82284 -1.58427e-07 0)
(8.82284 -1.35651e-07 0)
(9.7028 -1.95231e-08 0)
(9.7028 -2.20993e-08 0)
(9.7028 -2.38071e-08 0)
(9.7028 -2.90479e-09 0)
(9.7028 -1.7572e-08 0)
(9.7028 -8.46762e-10 0)
(9.7028 -1.55948e-08 0)
(9.7028 -5.75871e-09 0)
(9.7028 -1.75756e-08 0)
(9.7028 -1.63468e-08 0)
(9.7028 -2.50267e-08 0)
(9.7028 -3.13059e-08 0)
(9.7028 -4.006e-08 0)
(9.7028 -5.30453e-08 0)
(9.7028 -6.88421e-08 0)
(9.7028 -8.85494e-08 0)
(9.7028 -1.23324e-07 0)
(9.7028 -1.43465e-07 0)
(9.7028 -1.76871e-07 0)
(9.7028 -1.49155e-07 0)
(10.4561 -1.58255e-08 0)
(10.4561 -1.97948e-08 0)
(10.4561 -2.24258e-08 0)
(10.4561 -3.72442e-09 0)
(10.4561 -1.6718e-08 0)
(10.4561 -2.40506e-09 0)
(10.4561 -1.45611e-08 0)
(10.4561 -7.82003e-09 0)
(10.4561 -1.66765e-08 0)
(10.4561 -1.87841e-08 0)
(10.4561 -2.48022e-08 0)
(10.4561 -3.41275e-08 0)
(10.4561 -4.0984e-08 0)
(10.4561 -5.64788e-08 0)
(10.4561 -7.1665e-08 0)
(10.4561 -9.32747e-08 0)
(10.4561 -1.2994e-07 0)
(10.4561 -1.53328e-07 0)
(10.4561 -1.89991e-07 0)
(10.4561 -1.57551e-07 0)
(11.0828 -1.11274e-08 0)
(11.0828 -1.57852e-08 0)
(11.0828 -1.97152e-08 0)
(11.0828 -3.90619e-09 0)
(11.0828 -1.52019e-08 0)
(11.0828 -3.68304e-09 0)
(11.0828 -1.31086e-08 0)
(11.0828 -9.54768e-09 0)
(11.0828 -1.5387e-08 0)
(11.0828 -2.06027e-08 0)
(11.0828 -2.39897e-08 0)
(11.0828 -3.59273e-08 0)
(11.0828 -4.08553e-08 0)
(11.0828 -5.83255e-08 0)
(11.0828 -7.25388e-08 0)
(11.0828 -9.54965e-08 0)
(11.0828 -1.32758e-07 0)
(11.0828 -1.59007e-07 0)
(11.0828 -1.97308e-07 0)
(11.0828 -1.6049e-07 0)
(11.5828 -6.00734e-09 0)
(11.5828 -1.06952e-08 0)
(11.5828 -1.60176e-08 0)
(11.5828 -3.56038e-09 0)
(11.5828 -1.31236e-08 0)
(11.5828 -4.67352e-09 0)
(11.5828 -1.13106e-08 0)
(11.5828 -1.09058e-08 0)
(11.5828 -1.37781e-08 0)
(11.5828 -2.17816e-08 0)
(11.5828 -2.26506e-08 0)
(11.5828 -3.67165e-08 0)
(11.5828 -3.97355e-08 0)
(11.5828 -5.86415e-08 0)
(11.5828 -7.15407e-08 0)
(11.5828 -9.53349e-08 0)
(11.5828 -1.31883e-07 0)
(11.5828 -1.60393e-07 0)
(11.5828 -1.98583e-07 0)
(11.5828 -1.57927e-07 0)
(11.9561 -1.03917e-09 0)
(11.9561 -5.25377e-09 0)
(11.9561 -1.17945e-08 0)
(11.9561 -2.88965e-09 0)
(11.9561 -1.06424e-08 0)
(11.9561 -5.40323e-09 0)
(11.9561 -9.25945e-09 0)
(11.9561 -1.18777e-08 0)
(11.9561 -1.19176e-08 0)
(11.9561 -2.23174e-08 0)
(11.9561 -2.08381e-08 0)
(11.9561 -3.65223e-08 0)
(11.9561 -3.7685e-08 0)
(11.9561 -5.7492e-08 0)
(11.9561 -6.87645e-08 0)
(11.9561 -9.29038e-08 0)
(11.9561 -1.27493e-07 0)
(11.9561 -1.57451e-07 0)
(11.9561 -1.93763e-07 0)
(11.9561 -1.50077e-07 0)
(12.2028 3.26415e-09 0)
(12.2028 -1.90497e-10 0)
(12.2028 -7.55561e-09 0)
(12.2028 -2.13687e-09 0)
(12.2028 -7.96112e-09 0)
(12.2028 -5.91533e-09 0)
(12.2028 -7.06437e-09 0)
(12.2028 -1.24541e-08 0)
(12.2028 -9.87368e-09 0)
(12.2028 -2.22166e-08 0)
(12.2028 -1.86027e-08 0)
(12.2028 -3.53805e-08 0)
(12.2028 -3.47666e-08 0)
(12.2028 -5.49437e-08 0)
(12.2028 -6.43194e-08 0)
(12.2028 -8.83031e-08 0)
(12.2028 -1.19824e-07 0)
(12.2028 -1.50219e-07 0)
(12.2028 -1.82978e-07 0)
(12.2028 -1.37388e-07 0)
(12.3228 6.49595e-09 0)
(12.3228 3.86151e-09 0)
(12.3228 -3.78231e-09 0)
(12.3228 -1.52606e-09 0)
(12.3228 -5.30035e-09 0)
(12.3228 -6.24942e-09 0)
(12.3228 -4.84584e-09 0)
(12.3228 -1.26289e-08 0)
(12.3228 -7.71695e-09 0)
(12.3228 -2.14914e-08 0)
(12.3228 -1.59986e-08 0)
(12.3228 -3.33317e-08 0)
(12.3228 -3.10526e-08 0)
(12.3228 -5.10652e-08 0)
(12.3228 -5.83358e-08 0)
(12.3228 -8.1627e-08 0)
(12.3228 -1.09158e-07 0)
(12.3228 -1.38833e-07 0)
(12.3228 -1.66569e-07 0)
(12.3228 -1.20533e-07 0)
(12.3162 8.38633e-09 0)
(12.3162 6.44409e-09 0)
(12.3162 -8.55316e-10 0)
(12.3162 -1.20658e-09 0)
(12.3162 -2.87497e-09 0)
(12.3162 -6.41941e-09 0)
(12.3162 -2.73809e-09 0)
(12.3162 -1.23901e-08 0)
(12.3162 -5.53622e-09 0)
(12.3162 -2.01536e-08 0)
(12.3162 -1.3109e-08 0)
(12.3162 -3.04272e-08 0)
(12.3162 -2.66571e-08 0)
(12.3162 -4.59499e-08 0)
(12.3162 -5.10061e-08 0)
(12.3162 -7.30157e-08 0)
(12.3162 -9.58816e-08 0)
(12.3162 -1.23598e-07 0)
(12.3162 -1.45183e-07 0)
(12.3162 -1.00462e-07 0)
(12.1829 8.8236e-09 0)
(12.1829 7.34146e-09 0)
(12.1829 1.00142e-09 0)
(12.1829 -1.21188e-09 0)
(12.1829 -8.67359e-10 0)
(12.1829 -6.39749e-09 0)
(12.1829 -8.76089e-10 0)
(12.1829 -1.17085e-08 0)
(12.1829 -3.43384e-09 0)
(12.1829 -1.82114e-08 0)
(12.1829 -1.00419e-08 0)
(12.1829 -2.67277e-08 0)
(12.1829 -2.17255e-08 0)
(12.1829 -3.97112e-08 0)
(12.1829 -4.25641e-08 0)
(12.1829 -6.2647e-08 0)
(12.1829 -8.04452e-08 0)
(12.1829 -1.04988e-07 0)
(12.1829 -1.19832e-07 0)
(12.1829 -7.8471e-08 0)
(11.923 7.8544e-09 0)
(11.923 6.61315e-09 0)
(11.923 1.7542e-09 0)
(11.923 -1.44212e-09 0)
(11.923 5.60418e-10 0)
(11.923 -6.09699e-09 0)
(11.923 5.58024e-10 0)
(11.923 -1.05313e-08 0)
(11.923 -1.6059e-09 0)
(11.923 -1.5678e-08 0)
(11.923 -7.04294e-09 0)
(11.923 -2.23368e-08 0)
(11.923 -1.65949e-08 0)
(11.923 -3.26015e-08 0)
(11.923 -3.35155e-08 0)
(11.923 -5.09856e-08 0)
(11.923 -6.37242e-08 0)
(11.923 -8.40434e-08 0)
(11.923 -9.23437e-08 0)
(11.923 -5.64527e-08 0)
(11.5364 5.67273e-09 0)
(11.5364 4.71728e-09 0)
(11.5364 1.5684e-09 0)
(11.5364 -1.71218e-09 0)
(11.5364 1.34689e-09 0)
(11.5364 -5.50585e-09 0)
(11.5364 1.47736e-09 0)
(11.5364 -8.97779e-09 0)
(11.5364 -1.78546e-10 0)
(11.5364 -1.28106e-08 0)
(11.5364 -4.35366e-09 0)
(11.5364 -1.76879e-08 0)
(11.5364 -1.17042e-08 0)
(11.5364 -2.52882e-08 0)
(11.5364 -2.4634e-08 0)
(11.5364 -3.90881e-08 0)
(11.5364 -4.71595e-08 0)
(11.5364 -6.2794e-08 0)
(11.5364 -6.5407e-08 0)
(11.5364 -3.69989e-08 0)
(11.0232 2.94012e-09 0)
(11.0232 2.37863e-09 0)
(11.0232 8.82064e-10 0)
(11.0232 -1.57333e-09 0)
(11.0232 1.30963e-09 0)
(11.0232 -4.0988e-09 0)
(11.0232 1.49351e-09 0)
(11.0232 -6.40119e-09 0)
(11.0232 4.02789e-10 0)
(11.0232 -8.86783e-09 0)
(11.0232 -2.36139e-09 0)
(11.0232 -1.1975e-08 0)
(11.0232 -7.23858e-09 0)
(11.0232 -1.68556e-08 0)
(11.0232 -1.573e-08 0)
(11.0232 -2.58357e-08 0)
(11.0232 -3.02191e-08 0)
(11.0232 -4.05564e-08 0)
(11.0232 -4.0055e-08 0)
(11.0232 -2.16885e-08 0)
(10.3833 8.06142e-10 0)
(10.3833 6.06252e-10 0)
(10.3833 2.37608e-10 0)
(10.3833 -6.07834e-10 0)
(10.3833 5.51188e-10 0)
(10.3833 -1.44454e-09 0)
(10.3833 6.82202e-10 0)
(10.3833 -2.18635e-09 0)
(10.3833 3.8364e-10 0)
(10.3833 -2.93756e-09 0)
(10.3833 -4.52577e-10 0)
(10.3833 -3.84836e-09 0)
(10.3833 -1.95618e-09 0)
(10.3833 -5.27307e-09 0)
(10.3833 -4.54395e-09 0)
(10.3833 -7.92516e-09 0)
(10.3833 -8.8956e-09 0)
(10.3833 -1.21042e-08 0)
(10.3833 -1.13431e-08 0)
(10.3833 -5.95032e-09 0)
)
;

boundaryField
{
    top
    {
        type            fixedValue;
        value           uniform (10 0 0);
    }
    bottom
    {
        type            fixedValue;
        value           uniform (0 0 0);
    }
    inlet
    {
        type            zeroGradient;
    }
    outlet
    {
        type            zeroGradient;
    }
    frontAndBack
    {
        type            empty;
    }
}


// ************************************************************************* //
