/*--------------------------------*- C++ -*----------------------------------*\
| =========                 |                                                 |
| \\      /  F ield         | OpenFOAM: The Open Source CFD Toolbox           |
|  \\    /   O peration     | Version:  v1706                                 |
|   \\  /    A nd           | Web:      www.OpenFOAM.com                      |
|    \\/     M anipulation  |                                                 |
\*---------------------------------------------------------------------------*/
FoamFile
{
    version     2.0;
    format      ascii;
    class       surfaceScalarField;
    location    "1.7";
    object      phi;
}
// * * * * * * * * * * * * * * * * * * * * * * * * * * * * * * * * * * * * * //

dimensions      [0 3 -1 0 0 0 0];
oriented        oriented;


internalField   nonuniform List<scalar> 
760
(
4.41633e-05
-1.18728e-11
4.41633e-05
-8.18571e-12
4.41633e-05
-2.12965e-12
4.41633e-05
-3.12869e-12
4.41633e-05
1.16896e-12
4.41633e-05
-2.49006e-12
4.41633e-05
1.89697e-12
4.41633e-05
-1.83143e-12
4.41633e-05
1.40222e-12
4.41633e-05
-7.72876e-13
4.41633e-05
4.97717e-13
4.41633e-05
2.38566e-13
4.41633e-05
-1.12237e-13
4.41633e-05
7.75995e-13
4.41633e-05
-1.33032e-13
4.41633e-05
7.72016e-13
4.41633e-05
2.50204e-13
4.41633e-05
7.94422e-13
4.41633e-05
-1.68294e-12
-6.28501e-12
0.000126157
-3.4435e-11
0.000126157
-2.81993e-11
0.000126157
-9.88244e-12
0.000126157
-8.4529e-12
0.000126157
3.58397e-13
0.000126157
-5.45296e-12
0.000126157
2.84314e-12
0.000126157
-3.89065e-12
0.000126157
2.16197e-12
0.000126157
-1.92509e-12
0.000126157
3.3313e-13
0.000126157
-1.95752e-13
0.000126157
-1.20283e-12
0.000126157
4.61733e-13
0.000126157
-1.88909e-12
0.000126157
-1.34272e-13
0.000126157
-2.39778e-12
0.000126157
-1.59507e-13
0.000126157
-8.9111e-12
-1.86883e-11
0.000201818
-5.9723e-11
0.000201818
-5.47998e-11
0.000201818
-2.13547e-11
0.000201818
-1.51768e-11
0.000201818
-1.95653e-12
0.000201818
-8.27554e-12
0.000201818
2.85473e-12
0.000201818
-5.37271e-12
0.000201818
2.32525e-12
0.000201818
-2.52764e-12
0.000201818
-3.17807e-14
0.000201818
-2.57158e-13
0.000201818
-2.12031e-12
0.000201818
4.27903e-13
0.000201818
-3.24728e-12
0.000201818
-6.06857e-13
0.000201818
-4.98216e-12
0.000201818
-3.59001e-13
0.000201818
-1.81461e-11
-3.26559e-11
0.000271147
-8.33506e-11
0.000271147
-8.26081e-11
0.000271147
-3.42114e-11
0.000271147
-2.27057e-11
0.000271147
-4.86458e-12
0.000271147
-1.10271e-11
0.000271147
2.4781e-12
0.000271147
-6.38284e-12
0.000271147
2.2728e-12
0.000271147
-2.53189e-12
0.000271147
-2.86195e-13
0.000271147
3.0539e-13
0.000271147
-2.48286e-12
0.000271147
1.13588e-12
0.000271147
-3.59069e-12
0.000271147
4.49708e-14
0.000271147
-6.38218e-12
0.000271147
7.74496e-13
0.000271147
-2.71068e-11
-4.61831e-11
0.000334142
-1.01977e-10
0.000334142
-1.07009e-10
0.000334142
-4.6296e-11
0.000334142
-3.00051e-11
0.000334142
-7.88543e-12
0.000334142
-1.34065e-11
0.000334142
1.78779e-12
0.000334142
-6.86313e-12
0.000334142
1.99197e-12
0.000334142
-2.01666e-12
0.000334142
-4.59778e-13
0.000334142
1.31824e-12
0.000334142
-2.35651e-12
0.000334142
2.34456e-12
0.000334142
-3.04791e-12
0.000334142
1.5098e-12
0.000334142
-6.62836e-12
0.000334142
2.78042e-12
0.000334142
-3.44683e-11
-5.72529e-11
0.000390805
-1.13504e-10
0.000390805
-1.24633e-10
0.000390805
-5.56813e-11
0.000390805
-3.6007e-11
0.000390805
-1.05617e-11
0.000390805
-1.51119e-11
0.000390805
8.71116e-13
0.000390805
-6.79695e-12
0.000390805
1.48465e-12
0.000390805
-1.11763e-12
0.000390805
-6.00089e-13
0.000390805
2.54907e-12
0.000390805
-1.87844e-12
0.000390805
3.74012e-12
0.000390805
-1.88564e-12
0.000390805
3.34175e-12
0.000390805
-5.95883e-12
0.000390805
5.02618e-12
0.000390805
-3.96489e-11
-6.46292e-11
0.000441136
-1.16942e-10
0.000441136
-1.33442e-10
0.000441136
-6.09142e-11
0.000441136
-3.98067e-11
0.000441136
-1.24664e-11
0.000441136
-1.59052e-11
0.000441136
-1.43212e-13
0.000441136
-6.20561e-12
0.000441136
7.95259e-13
0.000441136
2.56366e-14
0.000441136
-7.33379e-13
0.000441136
3.79803e-12
0.000441136
-1.17877e-12
0.000441136
5.06571e-12
0.000441136
-3.54725e-13
0.000441136
5.15555e-12
0.000441136
-4.61123e-12
0.000441136
6.99685e-12
0.000441136
-4.24667e-11
-6.7654e-11
0.000485134
-1.12356e-10
0.000485134
-1.32788e-10
0.000485134
-6.1223e-11
0.000485134
-4.08115e-11
0.000485134
-1.32907e-11
0.000485134
-1.56439e-11
0.000485134
-1.12435e-12
0.000485134
-5.14466e-12
0.000485134
-1.18108e-14
0.000485134
1.27978e-12
0.000485134
-8.73735e-13
0.000485134
4.90339e-12
0.000485134
-3.7893e-13
0.000485134
6.12542e-12
0.000485134
1.31495e-12
0.000485134
6.64134e-12
0.000485134
-2.83342e-12
0.000485134
8.32367e-12
0.000485134
-4.30623e-11
-6.62478e-11
0.000522799
-1.00644e-10
0.000522799
-1.23255e-10
0.000522799
-5.66096e-11
0.000522799
-3.8854e-11
0.000522799
-1.29052e-11
0.000522799
-1.43186e-11
0.000522799
-1.96727e-12
0.000522799
-3.70711e-12
0.000522799
-8.7029e-13
0.000522799
2.52129e-12
0.000522799
-1.0335e-12
0.000522799
5.74474e-12
0.000522799
4.04958e-13
0.000522799
6.77857e-12
0.000522799
2.90872e-12
0.000522799
7.57296e-12
0.000522799
-8.92064e-13
0.000522799
8.78606e-12
0.000522799
-4.17699e-11
-6.08176e-11
0.000554131
-8.33584e-11
0.000554131
-1.06448e-10
0.000554131
-4.78101e-11
0.000554131
-3.42269e-11
0.000554131
-1.13926e-11
0.000554131
-1.20665e-11
0.000554131
-2.61311e-12
0.000554131
-2.02209e-12
0.000554131
-1.72369e-12
0.000554131
3.64353e-12
0.000554131
-1.22636e-12
0.000554131
6.24527e-12
0.000554131
1.06761e-12
0.000554131
6.94443e-12
0.000554131
4.23833e-12
0.000554131
7.82035e-12
0.000554131
9.41693e-13
0.000554131
8.30465e-12
0.000554131
-3.90184e-11
-5.21472e-11
0.000579131
-6.24815e-11
0.000579131
-8.47035e-11
0.000579131
-3.61497e-11
0.000579131
-2.76325e-11
0.000579131
-9.03728e-12
0.000579131
-9.15917e-12
0.000579131
-3.05605e-12
0.000579131
-2.45745e-13
0.000579131
-2.5299e-12
0.000579131
4.55862e-12
0.000579131
-1.46593e-12
0.000579131
6.36792e-12
0.000579131
1.52083e-12
0.000579131
6.60542e-12
0.000579131
5.15088e-12
0.000579131
7.35205e-12
0.000579131
2.41771e-12
0.000579131
6.92889e-12
0.000579131
-3.5246e-11
-4.12703e-11
0.000597799
-4.02209e-11
0.000597799
-6.0766e-11
0.000597799
-2.33201e-11
0.000597799
-2.00531e-11
0.000597799
-6.26913e-12
0.000597799
-5.96314e-12
0.000597799
-3.33397e-12
0.000597799
1.45238e-12
0.000597799
-3.25946e-12
0.000597799
5.20027e-12
0.000597799
-1.76049e-12
0.000597799
6.11667e-12
0.000597799
1.70345e-12
0.000597799
5.79907e-12
0.000597799
5.54279e-12
0.000597799
6.21954e-12
0.000597799
3.33148e-12
0.000597799
4.83545e-12
0.000597799
-3.08517e-11
-2.93532e-11
0.000610134
-1.88391e-11
0.000610134
-3.74722e-11
0.000610134
-1.11006e-11
0.000610134
-1.25717e-11
0.000610134
-3.5727e-12
0.000610134
-2.87915e-12
0.000610134
-3.50601e-12
0.000610134
2.90687e-12
0.000610134
-3.88679e-12
0.000610134
5.5259e-12
0.000610134
-2.10519e-12
0.000610134
5.53164e-12
0.000610134
1.58999e-12
0.000610134
4.61405e-12
0.000610134
5.37006e-12
0.000610134
4.56158e-12
0.000610134
3.55961e-12
0.000610134
2.29515e-12
0.000610134
-2.61735e-11
-1.75845e-11
0.000616136
-4.28505e-13
0.000616136
-1.73946e-11
0.000616136
-1.08311e-12
0.000616136
-6.166e-12
0.000616136
-1.38153e-12
0.000616136
-2.72266e-13
0.000616136
-3.62164e-12
0.000616136
3.97626e-12
0.000616136
-4.37844e-12
0.000616136
5.51801e-12
0.000616136
-2.47271e-12
0.000616136
4.68413e-12
0.000616136
1.20009e-12
0.000616136
3.18508e-12
0.000616136
4.66134e-12
0.000616136
2.59214e-12
0.000616136
3.09277e-12
0.000616136
-3.3882e-13
0.000616136
-2.1473e-11
-7.06737e-12
0.000615805
1.31998e-11
0.000615805
-2.55685e-12
0.000615805
5.61545e-12
0.000615805
-1.53017e-12
0.000615805
2.15576e-14
0.000615805
1.59082e-12
0.000615805
-3.69174e-12
0.000615805
4.56036e-12
0.000615805
-4.68227e-12
0.000615805
5.18458e-12
0.000615805
-2.80625e-12
0.000615805
3.67068e-12
0.000615805
6.03437e-13
0.000615805
1.68652e-12
0.000615805
3.52907e-12
0.000615805
5.77253e-13
0.000615805
2.05129e-12
0.000615805
-2.66488e-12
0.000615805
-1.69547e-11
1.26392e-12
0.000609142
2.08349e-11
0.000609142
5.9686e-12
0.000609142
8.53961e-12
0.000609142
1.06711e-12
0.000609142
5.7061e-13
0.000609142
2.58582e-12
0.000609142
-3.66632e-12
0.000609142
4.61245e-12
0.000609142
-4.71518e-12
0.000609142
4.55996e-12
0.000609142
-3.00895e-12
0.000609142
2.61461e-12
0.000609142
-6.76204e-14
0.000609142
3.31186e-13
0.000609142
2.1849e-12
0.000609142
-1.15464e-12
0.000609142
7.15464e-13
0.000609142
-4.23872e-12
0.000609142
-1.269e-11
6.78661e-12
0.000596147
2.18974e-11
0.000596147
8.22568e-12
0.000596147
8.05811e-12
0.000596147
1.82693e-12
0.000596147
4.27521e-13
0.000596147
2.76071e-12
0.000596147
-3.43966e-12
0.000596147
4.15794e-12
0.000596147
-4.36415e-12
0.000596147
3.71483e-12
0.000596147
-2.93603e-12
0.000596147
1.6717e-12
0.000596147
-5.98172e-13
0.000596147
-6.18703e-13
0.000596147
9.52867e-13
0.000596147
-2.20436e-12
0.000596147
-4.27278e-13
0.000596147
-4.60723e-12
0.000596147
-8.66644e-12
9.22831e-12
0.000576818
1.6963e-11
0.000576818
5.84261e-12
0.000576818
5.28116e-12
0.000576818
1.36983e-12
0.000576818
-4.64394e-14
0.000576818
2.27022e-12
0.000576818
-2.84613e-12
0.000576818
3.22568e-12
0.000576818
-3.48891e-12
0.000576818
2.68557e-12
0.000576818
-2.42742e-12
0.000576818
9.43409e-13
0.000576818
-7.85399e-13
0.000576818
-9.54798e-13
0.000576818
1.42538e-13
0.000576818
-2.2772e-12
0.000576818
-9.29146e-13
0.000576818
-3.56618e-12
0.000576818
-4.87044e-12
8.68468e-12
0.000551157
7.59608e-12
0.000551157
1.84477e-12
0.000551157
1.97531e-12
0.000551157
5.66374e-13
0.000551157
-3.73179e-13
0.000551157
1.39993e-12
0.000551157
-1.72729e-12
0.000551157
1.95036e-12
0.000551157
-1.96835e-12
0.000551157
1.59521e-12
0.000551157
-1.30217e-12
0.000551157
6.0914e-13
0.000551157
-3.36955e-13
0.000551157
-3.84191e-13
0.000551157
2.22575e-13
0.000551157
-9.41329e-13
0.000551157
-8.56753e-14
0.000551157
-8.57749e-13
0.000551157
-7.84341e-13
5.89086e-12
0.000519163
0.000519163
0.000519163
0.000519163
0.000519163
0.000519163
0.000519163
0.000519163
0.000519163
0.000519163
0.000519163
0.000519163
0.000519163
0.000519163
0.000519163
0.000519163
0.000519163
0.000519163
0.000519163
)
;

boundaryField
{
    top
    {
        type            calculated;
        value           uniform 0;
    }
    bottom
    {
        type            calculated;
        value           uniform 0;
    }
    inlet
    {
        type            calculated;
        value           nonuniform List<scalar> 
20
(
-4.41633e-05
-0.000126157
-0.000201818
-0.000271147
-0.000334142
-0.000390805
-0.000441136
-0.000485134
-0.000522799
-0.000554131
-0.000579131
-0.000597799
-0.000610134
-0.000616136
-0.000615805
-0.000609142
-0.000596147
-0.000576818
-0.000551157
-0.000519163
)
;
    }
    outlet
    {
        type            calculated;
        value           nonuniform List<scalar> 
20
(
4.41633e-05
0.000126157
0.000201818
0.000271147
0.000334142
0.000390805
0.000441136
0.000485134
0.000522799
0.000554131
0.000579131
0.000597799
0.000610134
0.000616136
0.000615805
0.000609142
0.000596147
0.000576818
0.000551157
0.000519163
)
;
    }
    frontAndBack
    {
        type            empty;
        value           nonuniform 0();
    }
}


// ************************************************************************* //
