/*--------------------------------*- C++ -*----------------------------------*\
| =========                 |                                                 |
| \\      /  F ield         | OpenFOAM: The Open Source CFD Toolbox           |
|  \\    /   O peration     | Version:  v1706                                 |
|   \\  /    A nd           | Web:      www.OpenFOAM.com                      |
|    \\/     M anipulation  |                                                 |
\*---------------------------------------------------------------------------*/
FoamFile
{
    version     2.0;
    format      ascii;
    class       volVectorField;
    location    "1.7";
    object      U;
}
// * * * * * * * * * * * * * * * * * * * * * * * * * * * * * * * * * * * * * //

dimensions      [0 1 -1 0 0 0 0];


internalField   nonuniform List<vector> 
400
(
(0.883266 -5.55251e-09 0)
(0.883266 -3.13052e-09 0)
(0.883266 -1.14342e-09 0)
(0.883267 -8.36248e-10 0)
(0.883267 -2.41915e-11 0)
(0.883267 -7.09844e-10 0)
(0.883267 3.39077e-10 0)
(0.883267 -7.2515e-10 0)
(0.883267 2.63618e-10 0)
(0.883267 -6.15126e-10 0)
(0.883267 -9.56763e-11 0)
(0.883267 -4.83504e-10 0)
(0.883267 -5.52244e-10 0)
(0.883267 -5.20197e-10 0)
(0.883267 -1.00554e-09 0)
(0.883267 -8.81537e-10 0)
(0.883267 -1.4158e-09 0)
(0.883267 -1.18943e-09 0)
(0.883266 -2.11204e-09 0)
(0.883267 -3.69942e-09 0)
(2.52314 -2.18833e-08 0)
(2.52314 -1.64681e-08 0)
(2.52314 -4.62372e-09 0)
(2.52314 -5.77011e-09 0)
(2.52314 1.55035e-09 0)
(2.52314 -4.27709e-09 0)
(2.52314 2.87956e-09 0)
(2.52314 -3.08687e-09 0)
(2.52314 2.05035e-09 0)
(2.52314 -1.36674e-09 0)
(2.52314 5.09087e-10 0)
(2.52314 1.74713e-10 0)
(2.52314 -5.94081e-10 0)
(2.52314 8.4492e-10 0)
(2.52314 -8.08486e-10 0)
(2.52314 5.65823e-10 0)
(2.52314 -5.60845e-10 0)
(2.52314 5.53139e-10 0)
(2.52314 -4.21637e-09 0)
(2.52314 -1.11607e-08 0)
(4.03636 -4.6701e-08 0)
(4.03637 -4.02182e-08 0)
(4.03637 -1.51623e-08 0)
(4.03637 -1.11403e-08 0)
(4.03637 -9.94871e-10 0)
(4.03637 -6.56192e-09 0)
(4.03637 2.54692e-09 0)
(4.03637 -4.6579e-09 0)
(4.03637 1.97161e-09 0)
(4.03637 -2.53777e-09 0)
(4.03637 -1.6334e-10 0)
(4.03637 -8.09081e-10 0)
(4.03637 -2.19975e-09 0)
(4.03637 -4.15797e-10 0)
(4.03637 -3.53937e-09 0)
(4.03637 -1.63485e-09 0)
(4.03637 -5.17231e-09 0)
(4.03637 -1.96224e-09 0)
(4.03637 -1.47532e-08 0)
(4.03637 -2.6353e-08 0)
(5.42293 -7.22186e-08 0)
(5.42293 -6.88112e-08 0)
(5.42293 -2.75249e-08 0)
(5.42293 -1.88562e-08 0)
(5.42293 -3.20214e-09 0)
(5.42293 -9.70968e-09 0)
(5.42293 2.84958e-09 0)
(5.42293 -5.98358e-09 0)
(5.42293 2.44208e-09 0)
(5.42293 -2.57495e-09 0)
(5.42293 -7.17552e-11 0)
(5.42293 5.44738e-11 0)
(5.42293 -2.25154e-09 0)
(5.42293 8.77178e-10 0)
(5.42293 -3.34842e-09 0)
(5.42293 -1.52915e-10 0)
(5.42293 -5.50961e-09 0)
(5.42293 3.82928e-10 0)
(5.42293 -2.23695e-08 0)
(5.42293 -3.92168e-08 0)
(6.68285 -9.41566e-08 0)
(6.68285 -9.60291e-08 0)
(6.68285 -4.06636e-08 0)
(6.68285 -2.64941e-08 0)
(6.68285 -6.38577e-09 0)
(6.68285 -1.22989e-08 0)
(6.68285 2.23126e-09 0)
(6.68285 -6.70372e-09 0)
(6.68285 2.24819e-09 0)
(6.68285 -2.31083e-09 0)
(6.68285 -2.8815e-10 0)
(6.68285 8.46867e-10 0)
(6.68285 -2.3668e-09 0)
(6.68285 1.84866e-09 0)
(6.68285 -3.25965e-09 0)
(6.68285 9.32584e-10 0)
(6.68285 -6.40691e-09 0)
(6.68285 2.00958e-09 0)
(6.68285 -3.09093e-08 0)
(6.68285 -5.22103e-08 0)
(7.81611 -1.09604e-07 0)
(7.81611 -1.17753e-07 0)
(7.81611 -5.18688e-08 0)
(7.81611 -3.34167e-08 0)
(7.81611 -9.35313e-09 0)
(7.81611 -1.44154e-08 0)
(7.81611 1.40079e-09 0)
(7.81611 -6.90608e-09 0)
(7.81611 1.84994e-09 0)
(7.81611 -1.56406e-09 0)
(7.81611 -4.31466e-10 0)
(7.81611 2.03251e-09 0)
(7.81611 -2.02168e-09 0)
(7.81611 3.23603e-09 0)
(7.81611 -2.32536e-09 0)
(7.81611 2.71224e-09 0)
(7.81611 -6.10351e-09 0)
(7.81611 4.34055e-09 0)
(7.81611 -3.71943e-08 0)
(7.81611 -6.16158e-08 0)
(8.82272 -1.17179e-07 0)
(8.82272 -1.31311e-07 0)
(8.82272 -5.94888e-08 0)
(8.82272 -3.85242e-08 0)
(8.82272 -1.1743e-08 0)
(8.82272 -1.57174e-08 0)
(8.82272 4.04342e-10 0)
(8.82272 -6.56848e-09 0)
(8.82272 1.24337e-09 0)
(8.82272 -5.03664e-10 0)
(8.82272 -5.54883e-10 0)
(8.82272 3.32774e-09 0)
(8.82272 -1.38811e-09 0)
(8.82272 4.67131e-09 0)
(8.82272 -8.97444e-10 0)
(8.82272 4.65332e-09 0)
(8.82272 -4.99463e-09 0)
(8.82272 6.6237e-09 0)
(8.82272 -4.111e-08 0)
(8.82272 -6.68478e-08 0)
(9.70267 -1.16476e-07 0)
(9.70267 -1.35404e-07 0)
(9.70267 -6.2374e-08 0)
(9.70267 -4.10434e-08 0)
(9.70267 -1.31646e-08 0)
(9.70267 -1.60153e-08 0)
(9.70267 -6.19834e-10 0)
(9.70267 -5.73122e-09 0)
(9.70267 4.80272e-10 0)
(9.70267 7.23391e-10 0)
(9.70267 -6.89304e-10 0)
(9.70267 4.5391e-09 0)
(9.70267 -6.12236e-10 0)
(9.70267 5.90475e-09 0)
(9.70267 7.53633e-10 0)
(9.70267 6.37138e-09 0)
(9.70267 -3.36965e-09 0)
(9.70267 8.36316e-09 0)
(9.70267 -4.27298e-08 0)
(9.70267 -6.76075e-08 0)
(10.456 -1.08021e-07 0)
(10.456 -1.30042e-07 0)
(10.456 -6.01333e-08 0)
(10.456 -4.05626e-08 0)
(10.456 -1.33897e-08 0)
(10.456 -1.52135e-08 0)
(10.456 -1.54932e-09 0)
(10.456 -4.4583e-09 0)
(10.456 -3.6521e-10 0)
(10.456 1.99909e-09 0)
(10.456 -8.34622e-10 0)
(10.456 5.53859e-09 0)
(10.456 2.07733e-10 0)
(10.456 6.79159e-09 0)
(10.456 2.43932e-09 0)
(10.456 7.63072e-09 0)
(10.456 -1.43162e-09 0)
(10.456 9.31653e-09 0)
(10.456 -4.22642e-08 0)
(10.456 -6.40349e-08 0)
(11.0826 -9.30886e-08 0)
(11.0826 -1.16382e-07 0)
(11.0826 -5.31592e-08 0)
(11.0826 -3.71464e-08 0)
(11.0826 -1.2391e-08 0)
(11.0826 -1.3377e-08 0)
(11.0826 -2.2989e-09 0)
(11.0826 -2.86409e-09 0)
(11.0826 -1.23131e-09 0)
(11.0826 3.20404e-09 0)
(11.0826 -1.00686e-09 0)
(11.0826 6.22368e-09 0)
(11.0826 9.55437e-10 0)
(11.0826 7.21408e-09 0)
(11.0826 3.94409e-09 0)
(11.0826 8.24344e-09 0)
(11.0826 5.24348e-10 0)
(11.0826 9.32239e-09 0)
(11.0826 -4.01324e-08 0)
(11.0826 -5.6766e-08 0)
(11.5826 -7.34985e-08 0)
(11.5826 -9.64727e-08 0)
(11.5826 -4.25314e-08 0)
(11.5826 -3.13165e-08 0)
(11.5826 -1.03604e-08 0)
(11.5826 -1.07174e-08 0)
(11.5826 -2.83623e-09 0)
(11.5826 -1.09476e-09 0)
(11.5826 -2.06924e-09 0)
(11.5826 4.23989e-09 0)
(11.5826 -1.22109e-09 0)
(11.5826 6.53695e-09 0)
(11.5826 1.53035e-09 0)
(11.5826 7.12212e-09 0)
(11.5826 5.0942e-09 0)
(11.5826 8.12591e-09 0)
(11.5826 2.23516e-09 0)
(11.5826 8.36536e-09 0)
(11.5826 -3.6786e-08 0)
(11.5826 -4.67399e-08 0)
(11.956 -5.13904e-08 0)
(11.956 -7.29348e-08 0)
(11.956 -2.98256e-08 0)
(11.956 -2.39573e-08 0)
(11.956 -7.67419e-09 0)
(11.956 -7.5679e-09 0)
(11.956 -3.18112e-09 0)
(11.956 6.82096e-10 0)
(11.956 -2.84346e-09 0)
(11.956 5.02812e-09 0)
(11.956 -1.49001e-09 0)
(11.956 6.46237e-09 0)
(11.956 1.85379e-09 0)
(11.956 6.5266e-09 0)
(11.956 5.75639e-09 0)
(11.956 7.28991e-09 0)
(11.956 3.46442e-09 0)
(11.956 6.56051e-09 0)
(11.956 -3.26505e-08 0)
(11.956 -3.50824e-08 0)
(12.2027 -2.90475e-08 0)
(12.2027 -4.86432e-08 0)
(12.2027 -1.68508e-08 0)
(12.2027 -1.61535e-08 0)
(12.2027 -4.81652e-09 0)
(12.2027 -4.32985e-09 0)
(12.2027 -3.38901e-09 0)
(12.2027 2.29381e-09 0)
(12.2027 -3.52944e-09 0)
(12.2027 5.5142e-09 0)
(12.2027 -1.81711e-09 0)
(12.2027 6.02356e-09 0)
(12.2027 1.88243e-09 0)
(12.2027 5.49339e-09 0)
(12.2027 5.85528e-09 0)
(12.2027 5.83213e-09 0)
(12.2027 4.03509e-09 0)
(12.2027 4.13911e-09 0)
(12.2027 -2.80941e-08 0)
(12.2027 -2.29943e-08 0)
(12.3227 -8.68179e-09 0)
(12.3227 -2.63793e-08 0)
(12.3227 -5.36657e-09 0)
(12.3227 -8.98675e-09 0)
(12.3227 -2.27194e-09 0)
(12.3227 -1.40437e-09 0)
(12.3227 -3.51937e-09 0)
(12.3227 3.5824e-09 0)
(12.3227 -4.09643e-09 0)
(12.3227 5.67012e-09 0)
(12.3227 -2.18351e-09 0)
(12.3227 5.28248e-09 0)
(12.3227 1.61519e-09 0)
(12.3227 4.14245e-09 0)
(12.3227 5.39127e-09 0)
(12.3227 3.95106e-09 0)
(12.3227 3.89389e-09 0)
(12.3227 1.4373e-09 0)
(12.3227 -2.33916e-08 0)
(12.3227 -1.16304e-08 0)
(12.3161 7.7079e-09 0)
(12.3161 -8.53006e-09 0)
(12.3161 3.20857e-09 0)
(12.3161 -3.33722e-09 0)
(12.3161 -4.29383e-10 0)
(12.3161 8.79305e-10 0)
(12.3161 -3.62147e-09 0)
(12.3161 4.42285e-09 0)
(12.3161 -4.51986e-09 0)
(12.3161 5.4844e-09 0)
(12.3161 -2.56731e-09 0)
(12.3161 4.30729e-09 0)
(12.3161 1.07546e-09 0)
(12.3161 2.60248e-09 0)
(12.3161 4.39577e-09 0)
(12.3161 1.83544e-09 0)
(12.3161 3.03401e-09 0)
(12.3161 -1.22609e-09 0)
(12.3161 -1.88439e-08 0)
(12.3161 -2.06086e-09 0)
(12.1828 1.85694e-08 0)
(12.1828 3.27729e-09 0)
(12.1828 8.03547e-09 0)
(12.1828 2.8889e-10 0)
(12.1828 5.34263e-10 0)
(12.1828 2.31506e-09 0)
(12.1828 -3.66287e-09 0)
(12.1828 4.73868e-09 0)
(12.1828 -4.71237e-09 0)
(12.1828 4.98579e-09 0)
(12.1828 -2.8679e-09 0)
(12.1828 3.23014e-09 0)
(12.1828 3.9037e-10 0)
(12.1828 1.10344e-09 0)
(12.1828 3.07623e-09 0)
(12.1828 -1.4535e-10 0)
(12.1828 1.7219e-09 0)
(12.1828 -3.32498e-09 0)
(12.1828 -1.45012e-08 0)
(12.1828 4.9451e-09 0)
(11.9229 2.28774e-08 0)
(11.9229 8.39902e-09 0)
(11.9229 9.04428e-09 0)
(11.9229 1.88973e-09 0)
(11.9229 6.23931e-10 0)
(11.9229 2.95801e-09 0)
(11.9229 -3.62326e-09 0)
(11.9229 4.63223e-09 0)
(11.9229 -4.60386e-09 0)
(11.9229 4.3336e-09 0)
(11.9229 -2.93473e-09 0)
(11.9229 2.2915e-09 0)
(11.9229 -1.5678e-10 0)
(11.9229 1.31094e-11 0)
(11.9229 1.8899e-09 0)
(11.9229 -1.42187e-09 0)
(11.9229 6.29499e-10 0)
(11.9229 -4.08229e-09 0)
(11.9229 -1.01432e-08 0)
(11.9229 9.00521e-09 0)
(11.5364 2.03972e-08 0)
(11.5364 7.83102e-09 0)
(11.5364 6.98848e-09 0)
(11.5364 1.65837e-09 0)
(11.5364 3.2014e-10 0)
(11.5364 2.32349e-09 0)
(11.5364 -3.0935e-09 0)
(11.5364 3.38087e-09 0)
(11.5364 -4.01254e-09 0)
(11.5364 2.81144e-09 0)
(11.5364 -2.97621e-09 0)
(11.5364 8.00883e-10 0)
(11.5364 -1.27722e-09 0)
(11.5364 -1.53349e-09 0)
(11.5364 -4.25765e-10 0)
(11.5364 -3.44092e-09 0)
(11.5364 -2.13901e-09 0)
(11.5364 -5.89596e-09 0)
(11.5364 -8.1606e-09 0)
(11.5364 8.60247e-09 0)
(11.0231 1.28309e-08 0)
(11.0231 3.8619e-09 0)
(11.0231 3.65286e-09 0)
(11.0231 1.12553e-09 0)
(11.0231 -4.32774e-10 0)
(11.0231 2.24908e-09 0)
(11.0231 -2.63042e-09 0)
(11.0231 3.07874e-09 0)
(11.0231 -3.02499e-09 0)
(11.0231 2.54565e-09 0)
(11.0231 -1.91155e-09 0)
(11.0231 1.05246e-09 0)
(11.0231 -3.37494e-10 0)
(11.0231 -4.29113e-10 0)
(11.0231 6.41958e-10 0)
(11.0231 -1.20817e-09 0)
(11.0231 1.64114e-10 0)
(11.0231 -1.4698e-09 0)
(11.0231 -2.00131e-09 0)
(11.0231 7.77624e-09 0)
(10.3833 3.97029e-09 0)
(10.3833 1.03396e-09 0)
(10.3833 9.13796e-10 0)
(10.3833 8.83821e-11 0)
(10.3833 -6.08258e-12 0)
(10.3833 2.50187e-10 0)
(10.3833 -5.84395e-10 0)
(10.3833 4.20957e-10 0)
(10.3833 -8.53316e-10 0)
(10.3833 2.6646e-10 0)
(10.3833 -7.91118e-10 0)
(10.3833 -1.95828e-10 0)
(10.3833 -6.81174e-10 0)
(10.3833 -8.0452e-10 0)
(10.3833 -8.03125e-10 0)
(10.3833 -1.46522e-09 0)
(10.3833 -1.42428e-09 0)
(10.3833 -2.07611e-09 0)
(10.3833 -1.79995e-09 0)
(10.3833 2.15411e-09 0)
)
;

boundaryField
{
    top
    {
        type            fixedValue;
        value           uniform (10 0 0);
    }
    bottom
    {
        type            fixedValue;
        value           uniform (0 0 0);
    }
    inlet
    {
        type            zeroGradient;
    }
    outlet
    {
        type            zeroGradient;
    }
    frontAndBack
    {
        type            empty;
    }
}


// ************************************************************************* //
